C600_000 slab -y

11332 atoms
4 atom types

0.000000 56.353755 xlo xhi
0.000000 156.323223 ylo yhi
0.000000 56.353755 zlo zhi

Masses

1 12.011
2 1.008
3 14.007
4 15.999

Atoms # charge

1 1 0.002706 27.589464 50.770752 6.224683
2 1 -0.005008 31.797337 51.518086 6.228376
3 1 -0.011183 34.141722 50.603403 6.243766
4 1 0.001131 31.465609 53.957642 6.112928
5 1 -0.004854 33.724635 53.006745 5.817876
6 1 0.004910 35.567415 54.264775 5.664534
7 1 0.004447 32.053366 55.286838 5.785565
8 1 0.007299 33.419634 55.679023 5.407025
9 1 -0.003473 32.335460 52.787624 6.040083
10 1 0.002161 34.239938 54.371554 5.544415
11 1 -0.018712 36.628459 53.550264 5.852513
12 1 0.000756 34.643400 51.916788 6.051828
13 1 0.008417 36.084513 52.159830 6.066321
14 2 0.022475 39.961374 54.254837 6.175319
15 2 0.018209 37.705773 53.841248 5.855532
16 4 -0.501750 23.734662 47.591243 5.910286
17 1 0.276013 24.317075 48.941644 6.226997
18 1 -0.009536 24.817254 45.099055 5.502656
19 1 0.250795 24.807583 46.592309 5.582859
20 1 -0.009393 31.073707 48.397520 3.358428
21 2 0.020099 29.342686 49.615264 3.103847
22 1 -0.065802 29.458753 46.086254 2.305743
23 1 0.013449 29.339417 44.852055 5.894714
24 1 0.011637 28.408812 45.947967 5.694770
25 1 0.005668 27.999960 48.436182 5.983296
26 1 0.007480 28.902622 47.272486 5.909750
27 1 0.217328 28.811024 45.164823 1.630152
28 2 0.029759 26.934373 46.988712 1.671857
29 1 -0.034164 25.679728 49.218830 6.060475
30 1 -0.007703 30.302562 47.565737 6.143108
31 1 0.027407 26.167266 44.506011 5.152436
32 1 -0.047545 27.599157 47.797706 2.056422
33 1 -0.021276 29.756028 48.613762 2.944092
34 2 0.026629 27.244430 48.815602 2.157329
35 1 0.013006 26.986553 45.760206 5.388275
36 1 -0.065250 26.169359 46.991532 5.367064
37 1 0.049811 26.650406 48.252755 5.717991
38 2 0.011631 27.893148 45.383409 1.100311
39 1 0.008283 28.542572 49.713560 6.170732
40 1 0.014891 28.899690 47.562852 2.468231
41 1 0.036295 30.867189 45.947180 2.852697
42 2 0.027832 31.693614 49.231020 3.612549
43 1 -0.021929 31.627172 47.064971 3.320917
44 1 -0.067163 31.427731 44.543085 2.721641
45 4 -0.504901 35.211909 45.869742 1.902813
46 2 0.073681 33.412356 44.598030 2.387288
47 2 0.031183 32.573624 46.809129 3.802028
48 1 -0.050289 32.887971 44.340437 3.304569
49 2 0.040815 33.206977 45.007557 4.122157
50 1 0.338022 36.241773 46.497515 2.213930
51 1 0.021759 36.602934 45.155954 4.349827
52 2 0.086361 36.699643 47.226678 1.444815
53 1 -0.024110 36.992095 46.203726 3.481228
54 1 -0.009826 35.503915 44.238870 4.093969
55 2 0.083989 34.963034 44.273262 3.138021
56 1 0.022175 37.357776 44.968917 5.557393
57 1 -0.039943 38.430586 45.826833 5.860657
58 4 -0.491142 38.376702 48.140533 1.707954
59 1 -0.021092 39.345220 44.024762 2.405666
60 1 -0.098730 38.151162 46.939536 3.793809
61 2 0.051640 39.836478 48.351640 3.031306
62 1 0.362250 38.862803 47.894139 2.812715
63 1 -0.007325 40.499286 44.239129 3.192586
64 1 0.268014 38.836523 46.841464 4.974560
65 4 -0.542359 40.005486 47.745200 5.189279
66 1 -0.067411 42.416028 45.709951 3.663387
67 1 0.056143 42.575077 45.205233 4.994804
68 2 0.018288 41.206736 45.772429 1.814195
69 1 -0.021648 41.818437 44.117820 5.318918
70 2 0.031678 39.145479 44.577105 1.490584
71 1 -0.014149 41.373373 45.264183 2.791005
72 2 0.013884 43.222147 46.940187 2.146197
73 1 0.236552 43.314238 46.573572 3.189337
74 1 -0.146889 43.681583 45.654135 5.813696
75 2 0.161543 41.966769 49.141183 6.018449
76 1 -0.007432 43.826569 44.248320 0.337592
77 1 0.018399 45.905083 43.873494 4.056928
78 2 0.035044 49.253672 44.055544 2.075003
79 4 -0.493359 44.423249 47.192287 4.016776
80 1 0.558146 44.527296 46.626950 5.366898
81 1 0.020350 44.851451 44.929590 0.857485
82 1 0.026591 45.409085 44.061978 2.882445
83 1 0.060195 45.729771 45.311936 1.764879
84 2 0.023162 22.986412 37.758338 5.307967
85 1 0.257649 30.762534 43.566560 2.046548
86 4 -0.480430 29.400002 43.700654 1.460422
87 1 -0.051884 27.228107 37.723154 2.799080
88 1 -0.046043 27.436759 38.410127 0.475676
89 1 0.053314 26.747217 37.630108 1.504345
90 1 0.256419 28.242733 39.482834 0.738676
91 1 -0.067724 28.843718 38.633567 4.336399
92 2 0.087326 29.987837 41.665050 0.617545
93 2 0.069569 29.589825 39.417607 4.553580
94 1 0.019165 30.737069 42.946592 6.233439
95 1 0.029943 29.328604 43.400419 5.821398
96 4 -0.489167 28.708364 39.733636 2.110889
97 1 0.249642 28.169367 38.743859 3.165575
98 1 0.018959 28.433227 37.644313 5.329039
99 1 0.030801 31.024351 41.485669 0.980022
100 4 -0.564833 34.769152 39.715710 0.452236
101 2 -0.035605 34.764445 41.745057 0.631802
102 1 -0.058972 36.129547 39.713163 3.889879
103 1 0.202183 37.172515 42.770579 2.291840
104 1 0.613995 34.455580 40.744210 1.057274
105 1 0.212654 36.850363 40.873076 3.604529
106 1 0.023795 35.208386 43.286864 5.070360
107 1 -0.059951 31.583409 42.392303 1.759094
108 1 -0.081851 36.013992 37.594136 5.183180
109 1 0.003675 32.692309 40.439422 5.229491
110 4 -0.548575 33.537390 40.822226 2.253381
111 1 0.027238 33.798097 41.370085 5.547154
112 2 0.056573 36.751690 43.337887 1.400241
113 1 0.008107 36.002893 43.000318 6.236205
114 2 0.001401 33.802697 42.821324 1.594553
115 1 0.214154 33.093233 42.265830 2.211216
116 2 0.033342 31.547058 38.835520 5.916174
117 1 0.011490 32.385090 39.498829 6.068581
118 2 0.063508 32.016134 40.647451 4.365210
119 2 0.034962 32.062910 42.471144 4.188661
120 1 0.018689 36.616089 38.870932 4.943200
121 1 0.053488 34.062057 42.495347 4.787843
122 1 -0.023650 33.010397 42.807542 3.737496
123 3 -0.439339 36.331803 41.835921 2.704106
124 2 0.052062 31.535067 40.578441 0.644805
125 2 0.095367 35.267753 39.378645 3.324938
126 1 -0.016041 42.524270 42.340116 1.159306
127 1 0.034569 38.274023 40.149588 0.764806
128 2 0.010968 38.737246 41.065839 1.124641
129 1 -0.010367 38.518174 38.888247 1.251446
130 1 0.022251 38.857724 42.311363 4.122223
131 1 0.001645 42.859526 41.381015 3.437970
132 1 -0.050658 37.991024 41.275845 4.487574
133 1 0.015087 42.157943 41.407921 2.131084
134 1 -0.018546 41.077911 40.542741 1.906036
135 1 0.025641 41.425596 39.452217 4.059415
136 2 0.016883 38.706708 39.080290 3.404643
137 1 0.006323 38.337985 40.554502 5.633295
138 1 -0.012714 40.649918 39.604975 2.808439
139 1 0.054447 37.795986 37.742195 0.762065
140 1 -0.008043 43.193959 40.347809 5.640168
141 1 0.025554 43.575165 43.282707 1.400271
142 2 0.015831 42.024970 42.468638 0.135838
143 1 -0.003616 40.783547 43.662389 4.482203
144 1 -0.000719 40.119083 41.996505 6.157140
145 1 -0.056420 41.806525 38.424402 6.225038
146 1 -0.020772 37.645069 39.329664 5.826965
147 1 -0.018945 39.954324 42.616059 4.879828
148 2 0.086824 40.447333 37.649257 4.807882
149 1 0.004957 42.543360 40.419988 4.338305
150 1 -0.047089 38.447811 43.033017 2.913438
151 1 0.188628 39.374278 38.788471 2.544690
152 2 0.050260 40.549391 40.640933 0.971364
153 1 -0.004325 41.137639 38.443950 4.950504
154 1 0.005542 44.258638 41.218161 5.956933
155 1 0.031197 48.977587 41.883448 2.350309
156 1 0.009294 49.273996 40.589161 1.772759
157 1 -0.007396 48.377141 41.965615 3.645950
158 1 0.015109 48.742815 39.454567 2.387149
159 1 -0.011467 49.466086 43.036044 1.687227
160 1 -0.011098 47.930644 40.836165 4.272693
161 2 0.035218 47.313373 40.848467 5.202643
162 1 -0.002191 44.573859 42.159707 4.951338
163 2 0.027878 48.229930 42.981748 3.992929
164 1 0.004385 49.079594 38.158433 1.811795
165 1 0.176621 46.896275 38.143353 5.474410
166 1 0.002533 50.010288 38.012696 0.774672
167 4 -0.534081 46.627935 42.427431 0.306212
168 1 0.007569 49.977096 42.905454 0.389863
169 1 -0.002748 45.731262 43.027235 5.182272
170 1 0.013760 44.320778 43.173762 2.643494
171 1 -0.059807 47.543300 38.292976 4.211582
172 1 0.008512 44.004838 42.226176 3.699460
173 1 0.023806 48.097244 39.559041 3.714007
174 1 0.001977 50.111736 40.516269 0.640262
175 1 0.003547 50.506713 39.202164 0.168286
176 1 -0.019241 21.045271 34.203336 5.951149
177 1 -0.000548 23.894575 33.089410 5.239937
178 1 -0.001243 23.901042 33.811531 2.866349
179 2 0.019057 21.808021 35.685883 4.616909
180 1 -0.020320 21.869426 35.276902 5.601584
181 1 -0.003147 22.936317 32.090555 4.898706
182 1 -0.015043 22.352403 32.035574 3.599354
183 1 -0.000257 24.398099 33.924821 4.213581
184 1 0.005583 24.440060 34.658170 1.867449
185 2 0.021079 20.392418 33.618168 5.214126
186 1 0.012543 21.642767 31.467587 0.872170
187 1 0.007700 24.036769 34.478544 0.519634
188 1 0.001167 22.884437 32.815005 2.570424
189 1 0.021459 23.178610 33.400903 0.187413
190 1 -0.002676 22.528563 32.618038 1.200787
191 1 0.001353 25.262338 35.007461 4.541095
192 1 0.001171 25.334698 35.680665 2.158272
193 1 0.017601 26.845138 36.002450 6.084311
194 1 -0.004291 27.236577 36.885465 5.060126
195 1 0.025461 30.365511 32.941370 0.213797
196 1 0.019685 26.748997 36.769523 3.742569
197 1 -0.028705 26.855088 32.247620 3.560463
198 1 0.190701 27.716850 34.029727 1.820000
199 1 0.010171 25.969274 36.508586 1.157162
200 1 0.185985 27.666673 33.532355 3.167601
201 1 0.007718 25.843505 34.996931 5.860355
202 1 0.464824 29.141688 35.220085 3.206658
203 4 -0.545255 28.580131 34.252066 4.168942
204 4 -0.530240 28.842997 35.116720 1.759851
205 1 0.002563 25.748271 35.806280 3.508675
206 2 -0.022990 29.954670 35.861860 3.584609
207 1 0.002372 29.989694 31.477376 2.266932
208 1 0.020380 30.624956 32.642989 1.658163
209 2 0.055877 27.522100 32.210880 5.661403
210 1 0.000408 31.070813 32.036721 4.493674
211 2 0.048060 31.285797 31.751929 5.525293
212 1 0.003051 26.850474 31.714460 4.926597
213 1 0.017594 26.064824 31.446790 2.848632
214 2 0.038337 34.062118 37.311188 2.992103
215 2 0.047044 35.287944 37.228262 4.482698
216 2 0.055000 32.660239 33.757452 5.707785
217 1 -0.018602 37.228309 33.370878 4.132114
218 1 -0.002711 32.258600 36.323965 0.002875
219 1 -0.013563 36.668171 34.359542 1.886262
220 1 -0.009653 35.514127 32.353960 2.650443
221 1 -0.017780 33.159729 35.069969 4.073239
222 1 0.015758 31.818890 34.959660 0.427054
223 1 0.004351 31.459655 33.507805 2.406497
224 1 0.020041 34.576863 31.370364 2.419722
225 1 0.066548 33.164137 37.104653 0.911291
226 1 0.012424 31.674058 33.151917 3.851209
227 1 -0.016845 34.962623 33.337504 0.427332
228 1 0.048318 34.189271 32.245465 0.126189
229 1 0.009050 32.012449 34.699813 1.828505
230 2 0.069751 33.806051 35.656731 4.846088
231 1 -0.031988 36.018295 31.508690 4.936311
232 1 0.005580 35.717067 33.336334 1.643414
233 1 -0.010913 33.439767 36.778243 2.293571
234 1 0.014874 36.206453 32.430041 3.898800
235 2 0.047935 36.601387 31.466986 5.886877
236 1 0.001437 32.897963 35.521642 2.706626
237 1 -0.012011 32.548948 33.987909 4.636838
238 1 0.017136 36.717258 35.558655 1.131235
239 1 0.012600 37.381024 34.334575 3.126968
240 1 -0.078267 33.933486 31.318242 1.160814
241 2 0.020444 41.848914 37.289236 0.202973
242 1 0.002560 41.245568 32.050329 6.185664
243 2 0.072847 42.025934 32.310942 5.445768
244 1 0.013168 40.201033 31.942130 0.474554
245 2 0.030910 37.717460 33.480046 5.110776
246 2 0.033797 43.558200 32.999434 0.917750
247 1 -0.059829 41.606924 31.958685 1.106612
248 2 0.023953 39.540913 33.237344 5.505106
249 1 -0.060405 37.601581 36.597016 1.607669
250 1 0.258301 38.439429 36.369997 2.704722
251 1 0.007532 42.566180 32.759074 0.482172
252 1 -0.067554 38.391474 35.255510 3.461200
253 2 0.058843 39.005264 35.147523 4.329107
254 4 -0.515416 39.574346 37.308967 3.047576
255 1 0.244167 49.276605 33.135705 0.660735
256 1 -0.069446 48.397789 33.307444 1.638508
257 2 0.015651 46.315802 32.456360 4.991110
258 1 0.002186 48.410694 36.992367 2.260888
259 2 0.055492 46.908727 33.726166 3.967753
260 1 -0.016470 47.326462 34.631062 3.472386
261 2 0.093259 45.450416 35.035113 5.439193
262 2 0.014463 48.481818 33.736027 5.955298
263 1 0.160421 46.166155 37.002372 5.868949
264 1 -0.077135 46.004085 35.898848 5.036744
265 1 -0.012351 48.641777 35.724847 1.646197
266 1 0.018712 48.138277 34.609592 2.325163
267 1 0.005961 47.002619 35.860089 3.985166
268 1 0.005163 47.551053 37.096558 3.406956
269 2 0.102729 47.990156 32.409705 2.062279
270 1 -0.050947 49.833299 34.316508 0.009291
271 4 -0.493488 49.684741 31.715085 0.143240
272 1 0.611583 44.377339 31.409213 2.120433
273 4 -0.536710 45.504256 31.677347 2.572957
274 2 -0.062425 44.206960 31.396822 1.023368
275 4 -0.513059 44.791998 32.954883 6.237053
276 1 0.342675 45.721369 32.208047 5.955077
277 1 0.015019 49.557163 35.594574 0.585039
278 1 0.002793 50.246620 36.713162 0.134762
279 2 0.021901 50.180450 32.551973 4.675802
280 1 -0.024666 50.454503 32.084813 5.619531
281 2 0.073452 17.700319 25.093363 2.644224
282 1 -0.038738 24.770150 29.716821 0.448128
283 2 0.118941 19.127965 28.463920 0.020663
284 4 -0.448762 19.182296 28.376245 5.254965
285 1 -0.054000 20.100839 25.343442 2.403813
286 2 0.040209 22.284988 27.402569 5.390689
287 1 0.011869 22.461388 27.434095 4.331644
288 1 0.030364 22.874804 27.751734 1.334184
289 1 -0.099803 20.930746 30.161350 4.327967
290 1 -0.062558 20.963107 30.675168 1.888921
291 1 0.004674 23.789088 28.384919 2.281698
292 1 -0.026693 24.246694 28.944613 4.761526
293 1 0.006048 23.519224 28.263414 3.783230
294 1 -0.002969 22.444426 31.224356 5.869449
295 1 0.039579 21.400248 30.983530 3.277709
296 1 0.036614 21.007528 25.777804 1.299507
297 1 0.282888 20.551648 25.822859 3.661630
298 1 0.252490 20.025906 29.617478 1.592851
299 1 0.466279 19.793344 29.098437 4.074943
300 1 -0.009600 21.755523 26.559652 3.463921
301 1 0.030870 21.934846 26.725995 1.999813
302 1 0.017282 24.483010 29.606471 1.741894
303 1 0.030421 21.406756 30.321163 5.622060
304 1 -0.065646 19.873780 29.274022 0.262493
305 4 -0.493087 19.361103 28.794373 2.676186
306 4 -0.547387 20.007953 25.510388 5.063975
307 2 0.016098 24.084470 28.692327 5.844418
308 1 0.021288 30.190517 31.215992 3.715240
309 2 0.033055 25.277139 26.073065 6.172562
310 1 -0.002178 25.208315 29.939697 4.286744
311 2 0.077354 28.239236 27.924550 5.458196
312 2 0.051855 29.896870 29.778184 5.384951
313 1 0.002007 28.643446 29.327190 2.191583
314 1 0.025890 28.784354 29.194536 3.627481
315 1 0.029664 29.120580 30.697270 0.099515
316 1 0.007760 29.659527 30.039275 4.321973
317 1 0.012575 28.004458 28.244648 1.437218
318 1 0.255646 30.923403 25.101497 4.532955
319 1 -0.011638 28.150477 28.074299 4.349591
320 1 -0.056643 27.444069 25.732667 0.183219
321 1 0.283368 27.024808 25.891587 1.522771
322 2 0.055495 27.286228 26.107271 4.138850
323 1 0.007658 29.248107 30.455843 1.531751
324 1 -0.050073 27.451909 27.092013 2.161376
325 4 -0.476249 30.894685 26.556233 5.008089
326 1 -0.006296 25.319639 30.339610 2.820164
327 2 0.068500 29.842353 25.587027 2.845313
328 1 0.018852 27.631258 27.016409 3.611967
329 1 -0.024843 26.137285 30.517284 5.246067
330 1 -0.003989 37.006535 29.815947 0.785730
331 1 -0.003638 35.767676 26.653012 4.386420
332 1 0.053935 34.940177 30.667245 4.752934
333 1 -0.009501 36.422049 28.207784 2.504151
334 1 0.016919 34.452019 26.765414 2.341130
335 2 0.042890 32.715416 25.513430 1.906465
336 1 0.002427 35.257140 27.810871 1.767212
337 1 -0.131112 32.620414 29.535876 1.986674
338 1 0.006431 34.763148 26.187476 3.650982
339 2 0.078003 36.038241 26.139057 5.349351
340 1 0.009225 33.404144 26.236360 1.544477
341 1 -0.008330 35.114244 28.213949 0.429518
342 2 0.095960 31.860196 28.786262 1.721109
343 1 0.246860 33.416965 28.969630 5.698819
344 1 -0.067157 33.322895 26.555562 0.171526
345 2 0.047163 34.199650 25.282576 4.009587
346 1 0.011831 37.321477 29.190029 2.038848
347 1 -0.080887 34.228442 30.563339 3.468361
348 4 -0.488653 32.655904 28.837422 4.397101
349 1 -0.080086 34.437004 29.824444 5.815791
350 1 0.022376 36.566418 27.775081 3.867945
351 1 0.263830 33.200726 29.652206 3.264784
352 1 0.257555 32.962060 30.310526 0.931073
353 4 -0.580979 43.182701 31.116801 2.986115
354 1 0.259490 41.841408 31.286491 2.323588
355 1 0.012001 39.825405 25.140357 0.344511
356 1 -0.019787 43.349453 30.030027 6.171472
357 1 -0.030068 43.424494 27.573413 2.920499
358 1 0.025560 43.465699 26.897764 4.102828
359 2 0.044878 43.053807 28.566716 2.839872
360 4 -0.520936 39.831418 29.443146 4.938387
361 1 -0.008973 40.047290 27.570764 0.800693
362 4 -0.563629 40.925642 25.213719 4.165796
363 1 -0.069811 38.458581 29.549186 2.830734
364 1 -0.035137 40.209424 25.598058 1.725444
365 1 0.005729 37.887489 30.927125 0.457984
366 1 -0.018326 39.152314 31.169759 1.129590
367 1 -0.020600 43.174207 27.624157 5.406564
368 2 0.088250 43.485042 31.048166 5.721818
369 2 0.048798 42.203399 28.066199 5.273151
370 2 0.050287 40.474725 27.663478 2.925705
371 1 0.043814 39.441906 30.444152 2.347645
372 1 0.014183 40.286628 27.091938 1.978728
373 1 0.213063 41.123201 29.770252 4.123510
374 2 0.008231 41.525579 28.750621 3.897943
375 2 0.075074 37.748685 27.801143 5.610652
376 1 -0.078240 40.747158 30.660426 2.910958
377 1 0.265204 38.614788 29.071793 4.148802
378 2 0.022968 43.067605 28.080284 0.005208
379 2 0.039194 41.720251 30.315685 4.870363
380 1 -0.075065 37.656351 28.229164 4.628974
381 2 0.026247 47.652930 30.648383 5.496348
382 1 -0.012660 47.101387 25.770627 0.459535
383 1 -0.023132 49.319700 25.738519 1.770655
384 1 0.009961 46.443811 28.474243 0.676893
385 2 0.059947 47.005421 29.270776 1.204080
386 1 -0.005597 45.047228 28.708249 0.074822
387 1 0.008279 45.048286 25.346390 3.088154
388 2 0.017216 49.929074 26.073979 0.914257
389 1 -0.041738 45.522300 25.220726 0.508755
390 2 0.016079 47.416597 25.864520 5.635531
391 1 -0.016971 49.857436 25.744234 2.965614
392 1 -0.022384 47.480591 25.600092 3.231921
393 1 -0.017235 44.036453 27.897051 0.457892
394 2 0.053737 44.708679 29.188149 4.689007
395 1 -0.005977 48.808952 25.407485 4.046620
396 1 0.003653 44.033205 26.978500 1.687274
397 1 -0.000087 44.902586 25.864843 1.783950
398 2 0.018533 47.126277 26.637541 3.173381
399 1 -0.023000 47.854873 25.194843 1.775954
400 2 0.047576 48.909084 26.249797 4.819629
401 1 0.014379 46.861373 27.205760 0.690764
402 1 -0.019814 43.899836 25.392406 4.092263
403 1 -0.031610 44.223073 28.922234 5.614102
404 2 0.042592 49.520325 28.990041 5.888839
405 1 0.000726 51.700651 30.258578 4.402569
406 2 0.053746 52.233870 29.314611 4.198937
407 2 0.058912 50.908239 26.049602 3.260267
408 4 -0.541140 51.480527 25.842981 5.904107
409 1 0.002660 51.405088 30.936435 5.552409
410 4 -0.549656 18.445734 23.872638 5.973261
411 1 0.031332 18.614425 24.874657 1.988922
412 1 0.011162 18.614766 24.134466 0.960174
413 2 -0.048459 18.579953 24.187876 3.996525
414 2 0.032063 18.788468 23.517212 0.106194
415 1 0.625330 18.977334 24.432649 5.040452
416 4 -0.577134 24.394790 24.967098 0.863347
417 2 0.081965 19.604137 21.075553 6.137271
418 2 -0.002148 24.832675 23.330879 2.077461
419 1 0.249660 21.565801 22.787509 5.702550
420 4 -0.458265 22.654217 23.810542 5.547711
421 2 0.009748 21.050979 22.400939 4.794609
422 1 0.613554 25.105700 24.336516 1.630893
423 1 0.019784 30.977375 21.059138 3.065731
424 1 0.008013 30.946499 22.362811 3.631179
425 4 -0.396075 25.526422 18.986963 4.478094
426 1 0.006598 29.744068 23.159652 1.695916
427 1 -0.015878 28.446433 19.677709 4.090711
428 1 0.036301 28.316158 20.911571 4.800815
429 2 0.060203 27.178335 22.002309 3.282366
430 1 0.000164 27.754152 22.124591 4.207287
431 1 0.022361 30.457666 20.803626 1.784183
432 1 0.008751 30.817472 19.585649 1.187768
433 1 -0.002051 27.553875 23.249369 4.938048
434 1 -0.075839 30.289551 24.787784 3.411627
435 2 0.078602 27.034120 24.082865 4.443724
436 1 0.014359 29.746367 21.873095 1.071017
437 1 0.003625 28.314832 23.484104 6.158159
438 1 0.003795 29.036638 21.041157 6.013046
439 2 0.045594 29.342104 23.946399 1.098160
440 1 0.028462 30.311972 23.490498 2.922634
441 2 0.046923 27.910411 19.527765 3.084336
442 4 -0.596721 26.358941 24.837901 2.346984
443 2 0.031985 35.080154 20.300326 5.317623
444 4 -0.567099 37.379579 23.554207 5.101598
445 2 -0.050787 33.891326 24.312241 0.924818
446 1 0.005771 35.805526 18.860163 3.920051
447 1 0.594660 32.901183 23.778513 0.611511
448 1 -0.000048 35.912146 19.686203 5.037956
449 1 0.019676 37.140882 19.674406 5.702621
450 1 -0.067820 31.549660 24.130253 5.284221
451 1 0.017317 31.609144 22.747651 4.802124
452 1 0.004079 31.693392 20.093494 3.800890
453 1 -0.006239 32.889631 19.374366 5.783315
454 1 -0.002806 32.261597 20.417871 5.064415
455 4 -0.527274 32.717322 22.723901 1.199134
456 1 0.003809 32.325631 21.759133 5.547937
457 1 -0.006345 31.825387 18.777790 3.285257
458 1 0.000296 39.589864 23.717976 0.074706
459 2 0.083778 39.239969 21.180810 6.199923
460 1 0.643840 37.733579 22.416028 5.056216
461 2 0.331105 37.784187 22.237088 3.092851
462 4 -0.684832 38.075926 21.637398 3.762919
463 2 0.036776 40.107088 19.469182 5.745786
464 1 0.005858 39.056127 20.878551 0.280185
465 1 0.017615 38.171154 18.863668 5.282342
466 1 0.622715 41.123392 24.387056 5.445867
467 2 0.034547 40.442321 20.735861 1.890988
468 2 0.016215 42.152763 20.259106 0.288540
469 1 0.290887 40.671816 24.687982 2.743512
470 1 -0.027348 38.696852 19.511084 0.657758
471 2 0.113060 41.041188 22.632218 3.192927
472 2 0.020882 39.136681 19.095748 1.571898
473 1 -0.011301 40.033314 21.448636 1.154140
474 1 0.030631 40.169496 22.861430 1.156928
475 1 -0.071232 40.742665 23.375555 2.427218
476 4 -0.572461 41.007987 23.175217 5.551283
477 2 0.072513 43.010035 24.793443 3.784565
478 2 0.009021 43.731573 21.790209 1.139519
479 2 0.034209 49.619260 21.721921 5.966645
480 1 -0.009251 48.592861 21.311772 6.207809
481 1 0.355755 44.717051 21.219918 1.027741
482 1 -0.012337 49.122294 23.926077 4.735774
483 2 0.042080 48.468865 18.970712 1.013237
484 1 -0.026365 49.309343 18.965925 0.301052
485 2 0.036553 46.995017 19.748984 0.184935
486 2 0.036985 48.883049 21.682203 0.538472
487 1 0.001462 49.229052 18.844328 5.696026
488 2 0.058935 46.898858 21.977937 5.243761
489 2 0.037351 49.585430 22.045035 3.716318
490 1 -0.022011 46.254712 24.605049 3.557561
491 4 -0.699579 47.738620 19.780329 3.362468
492 4 -0.489794 45.665000 21.673944 1.682950
493 2 0.071904 46.449934 23.630813 3.147242
494 2 0.028621 43.997526 24.045527 5.690127
495 1 -0.011123 45.968237 24.350587 5.112360
496 2 0.030496 47.789279 24.112049 1.717109
497 2 0.027651 45.827502 23.240120 5.271475
498 2 0.347921 47.174159 19.915625 2.583427
499 1 -0.021242 47.493808 22.350088 6.123207
500 1 -0.004061 48.187081 23.791566 6.029636
501 1 -0.013040 47.008940 24.878876 6.055802
502 2 0.078726 45.588593 24.072066 0.654340
503 1 0.049368 48.306990 19.961297 6.082146
504 1 0.006580 48.820626 22.867387 3.744516
505 1 -0.015725 44.585273 24.914552 5.400122
506 1 -0.022384 55.148609 20.711865 5.774929
507 2 0.038488 55.160634 21.115683 4.797432
508 1 -0.004699 52.304043 21.944343 4.360203
509 2 0.067268 50.341889 18.986705 5.809852
510 1 -0.021369 51.137930 21.422772 0.560791
511 1 0.012802 50.731404 18.966933 1.100590
512 2 0.040491 56.244315 19.204645 3.814563
513 1 0.014590 55.751672 19.415916 5.947088
514 1 0.605741 52.036943 24.808873 6.194698
515 1 0.007742 50.718341 20.443916 1.611228
516 2 0.013661 50.877149 23.398946 1.717254
517 2 0.064764 51.847279 21.611729 5.339054
518 1 -0.005524 52.921027 22.578835 1.988697
519 2 0.051713 50.189296 20.776166 2.482689
520 2 0.034609 50.219397 23.873871 5.019459
521 2 0.039444 53.774247 23.158239 5.784395
522 1 0.026572 52.572168 22.240332 3.273502
523 2 -0.064653 52.315286 24.020858 5.387935
524 1 -0.023005 51.733326 22.954210 1.140834
525 2 0.051598 53.951498 22.253401 1.680229
526 4 -0.473721 52.710813 18.988537 3.262119
527 1 0.271619 1.575456 14.903925 5.388546
528 2 0.068668 1.980426 14.965451 3.244291
529 4 -0.501869 2.075309 13.522969 5.523933
530 2 0.034352 0.869177 17.072216 2.859207
531 1 0.030144 0.355983 17.416154 5.001505
532 1 -0.002959 0.925932 16.679697 3.907934
533 1 -0.062903 1.547472 15.481977 4.135036
534 2 0.044017 22.082488 17.866547 5.486074
535 1 -0.008002 22.477958 15.743168 5.587816
536 2 0.034312 21.992143 15.502212 4.655785
537 2 0.059316 22.723872 13.209442 5.011357
538 1 0.026765 23.132449 13.428628 5.992360
539 1 -0.005421 22.590862 17.025492 6.008958
540 1 0.004723 29.110596 18.591926 4.678658
541 2 -0.006629 25.894808 17.042715 4.957923
542 1 0.324243 25.848592 18.110921 5.321626
543 1 0.008414 29.661929 16.216091 4.829911
544 1 0.254130 29.919711 13.767136 4.890553
545 1 -0.034159 30.996957 17.036199 0.155199
546 2 0.026717 28.803891 17.017841 3.076724
547 2 0.083093 29.001077 14.728130 3.323984
548 1 -0.028172 29.181844 17.299877 4.086731
549 2 0.061469 27.000643 13.456352 5.976762
550 1 -0.002277 29.719153 18.743608 5.999514
551 1 -0.088127 29.513457 14.892327 4.292916
552 2 0.033684 26.517611 15.719157 5.818129
553 1 -0.061960 30.506683 13.864867 6.210810
554 1 -0.019322 30.204111 16.371617 6.131324
555 2 0.097194 31.295637 13.595152 0.161042
556 1 0.013450 31.523705 17.325465 1.463105
557 1 -0.083035 31.432144 14.648535 0.495098
558 1 0.004095 31.412640 18.583773 1.966777
559 1 0.028915 32.141060 14.919777 1.665001
560 1 0.290933 34.008167 13.292713 5.980432
561 2 0.036210 36.775295 17.507933 2.538647
562 1 -0.003651 36.908697 18.096373 3.490124
563 2 0.064069 32.482670 12.779780 2.122063
564 1 -0.009418 32.134378 16.289835 2.206606
565 1 0.011544 32.701277 16.508149 3.471961
566 1 -0.054106 33.261416 15.369381 4.190375
567 4 -0.511195 33.492004 12.965331 4.639094
568 4 -0.579900 36.957994 13.985121 6.183394
569 2 0.082321 37.518189 14.218496 1.634958
570 1 -0.011026 33.412765 16.971577 6.095869
571 2 0.041007 34.928700 18.756269 3.289991
572 1 -0.006418 32.573021 17.808967 3.971410
573 2 -0.044069 35.995420 15.471002 5.266922
574 1 -0.047481 32.625844 13.809382 2.420221
575 1 0.000026 32.955261 18.086349 5.291079
576 4 -0.559601 35.327543 14.474566 0.598210
577 1 0.041085 33.492100 15.680577 5.586975
578 1 0.263992 33.146686 14.102474 3.666106
579 1 -0.144468 37.114806 17.341908 0.296133
580 1 0.645045 36.991527 15.002348 5.507126
581 2 0.023821 40.712428 18.671526 2.692477
582 1 0.603084 43.560181 14.177589 4.454673
583 1 -0.013775 43.594946 12.581391 1.345853
584 1 0.253194 39.547675 16.546580 4.906208
585 1 -0.003836 40.419087 14.507361 5.573303
586 2 0.073315 39.592998 13.911275 5.151122
587 1 -0.017316 43.243086 13.812447 0.218188
588 2 0.053631 42.508704 16.507201 3.012341
589 1 -0.019179 38.903545 12.884012 2.884798
590 1 0.050090 38.134246 18.140480 4.138827
591 2 0.065479 41.187172 14.332786 2.982290
592 2 0.056457 38.421273 13.122875 3.894178
593 1 -0.043338 40.765779 17.775766 3.252766
594 1 -0.030027 40.697503 15.313770 3.169063
595 1 -0.038532 41.474768 16.579192 2.597898
596 2 0.031751 41.348588 17.925741 4.182328
597 2 0.072827 41.630893 16.141188 4.908033
598 2 0.048248 41.032841 17.397279 6.030591
599 1 -0.058845 39.917656 17.300751 6.121118
600 1 -0.017504 38.491602 13.619754 1.649085
601 2 0.032438 38.897767 16.768089 2.756615
602 2 0.017874 43.645018 14.766465 0.662453
603 2 0.035004 43.549130 17.942578 0.605865
604 2 0.005530 40.168139 16.279736 0.290741
605 4 -0.590373 42.352459 13.265354 4.571595
606 1 0.004728 39.332275 13.738440 0.525867
607 1 -0.005212 40.758635 13.345367 0.653216
608 1 -0.008942 39.359693 18.759330 6.190280
609 1 -0.041601 40.678947 15.665055 4.667499
610 4 -0.609992 38.213992 15.780103 5.162500
611 2 0.009768 41.436998 16.556052 1.467260
612 2 0.040938 37.727770 16.668273 0.827124
613 1 0.229794 41.626631 13.550156 5.879934
614 1 -0.053197 39.264829 17.319098 3.691689
615 2 0.032551 39.669133 15.258052 2.862858
616 4 -0.597846 43.803674 15.075804 5.245911
617 1 0.011554 48.679088 17.753930 5.310830
618 2 0.020921 45.333348 14.488858 0.419804
619 2 -0.058510 44.143211 14.097565 3.498336
620 2 0.033960 49.392813 16.939976 5.073125
621 2 0.047528 47.877634 16.859162 2.442196
622 2 0.016120 46.603410 12.634927 3.825176
623 1 -0.005508 47.293189 15.246430 3.995248
624 2 0.119165 45.448391 16.653855 4.566025
625 1 0.021400 46.564689 18.338807 6.175239
626 1 -0.018414 47.912541 14.184061 4.969202
627 2 0.030613 45.462708 12.675200 5.490533
628 4 -0.591714 45.931645 18.249264 3.083967
629 1 -0.002912 47.219668 13.362593 0.417608
630 1 -0.022709 49.606052 15.792030 3.082275
631 2 0.039718 49.028643 14.222484 5.015956
632 1 -0.016010 48.297226 16.023602 3.120103
633 2 0.027754 46.576868 14.720913 3.298340
634 1 -0.004154 48.448403 15.463813 0.429403
635 1 -0.006508 49.402934 16.494311 0.651655
636 1 -0.015929 47.434763 12.790076 4.576484
637 2 0.032407 46.719350 16.824147 0.275134
638 1 -0.088416 47.203946 17.727780 5.051942
639 2 0.040132 50.050640 14.977695 3.696191
640 1 0.606198 46.854415 18.638104 3.771562
641 2 0.026379 49.198559 13.687742 1.443516
642 1 -0.026566 48.405716 14.113727 0.832850
643 1 0.011519 46.514129 16.400936 4.849138
644 2 0.039978 45.063957 17.035408 0.331191
645 2 0.069131 49.758385 18.412616 3.030965
646 2 0.025630 44.220255 12.985195 2.238592
647 1 0.275892 54.428724 14.791974 5.573897
648 2 0.021763 54.806478 14.219845 4.689978
649 2 0.013342 52.030351 17.052064 3.861494
650 1 0.326656 51.921738 18.013133 3.227274
651 2 0.027923 51.357705 16.302154 1.554935
652 1 -0.069732 50.597066 18.070415 2.377457
653 1 -0.010819 50.342772 16.540812 1.886700
654 4 -0.502302 54.105754 16.199389 5.391975
655 4 -0.586803 51.779883 13.039569 5.706022
656 1 -0.003960 56.258754 18.740932 4.831909
657 2 0.366010 51.568765 15.252892 6.167920
658 2 0.126135 52.899141 18.638373 5.552283
659 2 0.026531 51.584624 18.677827 0.424497
660 2 0.072903 2.630147 10.980650 6.175522
661 4 -0.575240 23.109086 10.757480 4.795002
662 2 -0.006315 23.624276 10.958563 2.721344
663 2 0.048895 22.945635 8.262303 6.029525
664 1 0.615410 23.723899 11.537904 3.693964
665 2 0.080195 24.737846 8.346904 5.586755
666 4 -0.521476 24.622972 12.356420 3.807459
667 2 0.010912 26.314067 11.950670 5.581227
668 1 -0.041023 29.106951 6.438694 5.382414
669 1 0.296648 28.482651 7.241796 4.447283
670 4 -0.491862 29.310061 8.170787 3.650624
671 2 0.092329 26.636709 7.797875 3.393461
672 1 0.251676 30.219339 11.252561 5.126035
673 2 0.048317 30.111270 10.267224 4.722449
674 4 -0.485205 26.547525 9.985473 5.392015