LAMMPS data file via write_data, version 19 Nov 2024, timestep = 3863581, units = real

12647 atoms
4 atom types

0 56.53285 xlo xhi
0 56.53285 ylo yhi
0 156.520934 zlo zhi

Masses

1 12.011
2 1.008
3 14.007
4 15.999

Atoms # charge/kk

11827 1 0.2488095793396633 18.943583 2.72306 1.071211 0 0 0
11828 1 0.02129123457974509 19.459256 5.573644 0.32361 0 0 0
11829 4 -0.3720855198215421 19.004865 3.362645 2.302762 0 0 0
11830 1 0.5560227475872772 23.125314 6.189475 0.624883 0 0 0
11831 1 0.04971837810659815 20.300217 2.911464 1.51599 0 0 0
11832 1 -0.1020542899557888 22.215918 1.549151 2.04203 0 0 0
11833 1 0.2099757403932829 22.996226 2.630218 1.795957 0 0 0
11834 4 -0.5256146173831091 19.978928 0.549568 2.183399 0 0 0
11835 1 0.2070361648059932 22.546672 3.880823 1.422544 0 0 0
11836 1 -0.06647629059951221 21.236689 4.073271 1.220939 0 0 0
11837 2 0.1229672036671914 22.76663 0.632561 2.329657 0 0 0
11838 1 0.07406466142342305 20.784915 5.356415 0.889407 0 0 0
11839 4 -0.4272631817238098 24.508379 2.370447 1.862955 0 0 0
11840 1 0.4564042046167877 24.910978 1.145051 1.119395 0 0 0
11841 1 0.286636066799806 20.866509 1.695016 1.952702 0 0 0
11842 4 -0.4879097024489732 23.632504 4.919022 1.041343 0 0 0
11843 2 0.1037060003056803 28.432463 0.259255 2.422482 0 0 0
11844 4 -0.4019919215751075 26.225748 6.061615 3.254127 0 0 0
11845 1 0.0234347633297819 27.41333 3.850696 0.128715 0 0 0
11846 1 0.03259054489267418 26.614569 5.17825 0.416336 0 0 0
11847 4 -0.4897037395523151 26.186756 0.374341 1.425827 0 0 0
11848 4 -0.5258440517617777 31.182487 0.849879 5.285857 0 0 0
11849 2 0.168006454487985 25.921146 5.042201 1.292902 0 0 0
11850 4 -0.5071314549923107 30.689288 2.077609 1.358289 0 0 0
11851 2 0.1001678890508796 30.796891 1.145727 3.191859 0 0 0
11852 1 0.04013167355065401 29.724926 5.013839 1.918474 0 0 0
11853 2 0.07460973559831757 27.904742 3.516296 1.05387 0 0 0
11854 2 0.06491077103318345 30.427405 2.912611 3.285469 0 0 0
11855 1 0.1080897470547979 31.175224 2.129088 2.873726 0 0 0
11856 1 -0.01305414329318169 30.873902 5.654884 1.938204 0 0 0
11857 1 -0.01305803403492643 33.319984 5.995048 0.865909 0 0 0
11858 1 -0.01044264474262431 31.912767 5.503331 0.887444 0 0 0
11859 1 0.2235055255186126 31.70848 2.153906 0.292105 0 0 0
11860 1 0.5831757021446009 32.096885 1.617007 5.596862 0 0 0
11861 1 -0.05230506074992016 33.096048 2.514763 0.717438 0 0 0
11862 2 -0.03152702407728081 37.174751 5.823588 0.945708 0 0 0
11863 1 0.2140236346933436 32.593792 2.401805 3.204543 0 0 0
11864 4 -0.4563179070304735 37.379778 3.749309 1.821245 0 0 0
11865 4 -0.4851088451452745 33.002975 2.402214 4.64752 0 0 0
11866 2 0.01433015881076099 33.399422 4.093197 2.24213 0 0 0
11867 1 0.1411458138076185 33.507756 3.005307 2.22339 0 0 0
11868 4 -0.4093955770786211 35.12422 2.692996 2.503338 0 0 0
11869 2 -0.06073435686828801 35.454 4.298209 0.971904 0 0 0
11870 1 0.4689863111084878 35.932293 3.591287 1.679195 0 0 0
11871 1 0.1036985450443427 36.662075 5.894021 4.509299 0 0 0
11872 4 -0.3704032623036205 39.283256 5.233823 1.038046 0 0 0
11873 1 0.3850854279884815 37.806641 4.886704 0.822204 0 0 0
11874 1 0.04789167028035063 38.117483 6.140979 4.771376 0 0 0
11875 1 0.02237524687053722 16.137427 11.256192 0.226025 0 0 0
11876 1 -0.05939159337653514 15.648326 12.301216 1.10742 0 0 0
11877 1 0.0005269496072215056 18.43431 11.866289 0.991114 0 0 0
11878 1 0.002563029093738489 17.542429 11.016596 0.255681 0 0 0
11879 1 -0.05642844890153517 24.810053 12.033057 0.382787 0 0 0
11880 1 -0.07232747191752144 22.150573 8.813016 0.35579 0 0 0
11881 1 -0.05934093930287484 24.396984 9.611529 0.152765 0 0 0
11882 1 0.2476973698967037 23.522088 8.610496 0.206284 0 0 0
11883 1 0.05809191006530538 21.221418 7.730775 0.436605 0 0 0
11884 4 -0.5436490704961199 24.092419 7.172389 0.267438 0 0 0
11885 1 -0.007989184565647839 20.280298 10.269954 0.550623 0 0 0
11886 1 0.01534374721022726 21.662909 10.149075 0.512705 0 0 0
11887 1 0.328203693675012 24.742901 9.805459 2.9159 0 0 0
11888 1 -0.1456840496732541 21.772964 6.431044 0.632613 0 0 0
11889 1 -0.02958911729469027 22.546544 11.231787 0.621899 0 0 0
11890 1 -0.002312826659446892 19.793904 11.550323 0.894725 0 0 0
11891 1 0.03965709114416675 23.932199 10.939288 0.376696 0 0 0
11892 1 0.0153748499218456 22.095386 12.477453 1.039293 0 0 0
11893 2 -0.0129533268668094 23.807658 10.286851 3.402145 0 0 0
11894 1 -0.00200072681273981 19.805968 7.976808 0.077618 0 0 0
11895 2 0.01030970232556983 24.866038 8.640667 2.851741 0 0 0
11896 1 0.007104696348358344 19.367008 9.29163 0.068459 0 0 0
11897 2 0.04184005477961478 25.999153 12.037368 5.096602 0 0 0
11898 2 0.079164036913331 25.904554 11.928539 0.224739 0 0 0
11899 2 0.007389835065387818 26.37659 8.117357 3.311903 0 0 0
11900 1 0.02597232019966743 28.179864 8.572119 1.25415 0 0 0
11901 1 0.3205878611961161 26.654225 7.148562 2.826742 0 0 0
11902 1 0.03141384818821862 28.992054 11.221012 2.14566 0 0 0
11903 1 -0.009709679051794514 28.763869 12.028123 3.171602 0 0 0
11904 2 0.08963502872870267 25.434066 9.301813 0.06269 0 0 0
11905 1 -0.008282326800859763 29.736162 11.159548 0.972234 0 0 0
11906 1 -0.03611636024769113 27.479139 7.395551 1.472192 0 0 0
11907 2 0.04373922957998051 27.949527 11.921519 3.905305 0 0 0
11908 1 -0.001243930972089542 29.116381 8.830014 0.269046 0 0 0
11909 4 -0.5242441902019869 25.652946 10.507474 2.484811 0 0 0
11910 1 0.005565551985989273 29.910621 10.038231 0.062114 0 0 0
11911 1 0.004818411344773368 30.451007 12.450639 0.680225 0 0 0
11912 1 0.03202536551652992 27.688942 6.341605 0.507836 0 0 0
11913 1 -0.02482832421904022 31.419848 6.742539 3.14397 0 0 0
11914 1 0.651803717029915 36.355622 9.573656 6.188013 0 0 0
11915 4 -0.5238073321759568 36.505266 11.089218 6.038126 0 0 0
11916 1 0.02143591460207732 36.31861 6.479109 3.180585 0 0 0
11917 1 0.03645533118300621 35.092339 6.563633 2.669771 0 0 0
11918 1 -0.005757354592008391 34.625386 10.569375 0.4917 0 0 0
11919 4 -0.4944992180734277 35.963854 8.865548 5.285409 0 0 0
11920 1 0.02359062253426783 33.889899 11.226497 1.569166 0 0 0
11921 1 0.03217510853737136 37.611729 7.253389 2.769413 0 0 0
11922 1 -0.001525021156717467 33.860992 6.624571 2.215537 0 0 0
11923 1 0.01847898389494992 32.753993 7.258776 3.100196 0 0 0
11924 2 0.07492286041761961 35.760565 11.997442 4.309508 0 0 0
11925 1 0.06959876505187651 32.199911 6.706891 4.270034 0 0 0
11926 1 0.01205824111791318 37.721674 8.249842 1.711602 0 0 0
11927 1 0.03286148650056438 38.177633 11.559144 0.56689 0 0 0
11928 1 0.07170002070694106 41.113035 6.695485 0.142379 0 0 0
11929 1 0.04460744286067993 38.565186 10.559518 0.919431 0 0 0
11930 1 0.02628531054646736 38.642194 7.10153 3.767323 0 0 0
11931 4 -0.4637695806278286 39.2987 10.350625 5.858309 0 0 0
11932 1 0.08299711213284659 41.924441 7.201509 5.205072 0 0 0
11933 1 0.002983998270223587 38.956406 9.151976 1.537618 0 0 0
11934 1 0.02700199042351599 41.026223 7.524598 4.403085 0 0 0
11935 1 -0.0107770591748545 40.008852 12.088377 4.176218 0 0 0
11936 1 0.2245724145889736 39.86072 11.778901 5.501937 0 0 0
11937 2 0.1196412258733792 39.724528 11.364901 3.398242 0 0 0
11938 1 0.01903394818756726 39.900813 7.800755 3.580975 0 0 0
11939 1 0.05444307103998743 40.00504 8.859638 2.518773 0 0 0
11940 4 -0.5642930390165547 41.100114 12.324692 1.5914 0 0 0
11941 2 0.05045344292447385 41.54591 6.771856 1.20839 0 0 0
11942 1 0.6160671941971516 43.343834 11.665588 5.32205 0 0 0
11943 4 -0.4599245592433281 43.401686 10.501873 4.883054 0 0 0
11944 2 -0.0244219148011672 42.866487 12.533959 4.744386 0 0 0
11945 2 0.02500645192003707 48.766441 6.542114 6.183027 0 0 0
11946 2 0.07756012543368403 46.282003 8.682471 5.553668 0 0 0
11947 1 0.2569716985314134 14.254349 12.563513 1.069897 0 0 0
11948 1 0.2024797900145965 15.656159 18.735163 3.54621 0 0 0
11949 2 0.08759773061104312 12.919226 15.672568 3.62166 0 0 0
11950 1 -0.005360729146905343 17.986011 13.00704 1.671729 0 0 0
11951 1 -0.05260476149073023 14.051477 15.623895 3.463692 0 0 0
11952 1 0.02007528969935846 17.026695 15.333905 2.963668 0 0 0
11953 1 0.04111531250685786 16.571965 13.21477 1.733954 0 0 0
11954 1 0.0516103937705553 14.825777 16.572737 3.990422 0 0 0
11955 1 -0.06516003283148927 15.579064 17.513916 4.459767 0 0 0
11956 2 0.04347302143346064 16.316947 17.359593 5.261246 0 0 0
11957 4 -0.4698087819963747 13.630821 13.578052 2.000884 0 0 0
11958 1 0.2476548139842478 14.617495 14.487336 2.70003 0 0 0
11959 1 -0.06548955217095274 15.99832 14.370021 2.495269 0 0 0
11960 1 0.1970193618930726 17.757629 17.980855 3.522687 0 0 0
11961 1 -0.04894185000504233 18.507571 15.173632 2.791952 0 0 0
11962 1 0.005673696359078465 20.674368 12.582533 1.332866 0 0 0
11963 1 0.007943174344177427 18.93886 13.97068 2.12899 0 0 0
11964 2 0.1010612281641266 24.50561 15.40479 5.729061 0 0 0
11965 4 -0.5700589932429255 24.149163 18.580044 4.504177 0 0 0
11966 4 -0.4726207409978014 22.562357 15.532839 4.339064 0 0 0
11967 1 -0.002225006462010465 24.316137 16.209582 2.609368 0 0 0
11968 4 -0.4645331941788194 21.521326 17.234933 2.376944 0 0 0
11969 1 -0.01859132354768227 21.177384 14.858469 2.073562 0 0 0
11970 1 0.2437554355136816 23.305774 15.431004 2.927268 0 0 0
11971 1 0.2242370402589904 20.669303 16.026047 2.548729 0 0 0
11972 1 0.03602608781859375 22.578279 14.661097 1.9089 0 0 0
11973 1 0.2876133574048818 24.4175 13.218321 0.886669 0 0 0
11974 1 0.002688712120718089 20.266463 13.822355 1.832314 0 0 0
11975 4 -0.4837815215679293 19.129988 17.499834 3.744772 0 0 0
11976 1 0.194398426511803 19.416175 16.191211 3.012628 0 0 0
11977 1 -0.04121821208693752 20.572194 17.953269 6.159302 0 0 0
11978 1 -0.04848968750321501 23.07337 13.466829 1.318268 0 0 0
11979 1 -0.06178540370058287 21.354237 16.874526 5.980171 0 0 0
11980 1 0.3008829390621566 21.939333 16.762837 4.748819 0 0 0
11981 1 0.07040004582253916 21.981437 17.793194 3.810854 0 0 0
11982 1 0.3614852755385889 23.337372 18.406891 3.605406 0 0 0
11983 2 0.07927754983017499 23.299729 18.316579 1.41042 0 0 0
11984 2 0.06665025827012901 24.426671 12.809499 4.590262 0 0 0
11985 1 0.03737258163886559 29.521512 13.299604 2.815385 0 0 0
11986 2 0.02643680039400852 27.211452 14.068204 5.022742 0 0 0
11987 2 0.05459126127590682 27.183319 15.776398 2.932751 0 0 0
11988 1 0.1063864276412302 26.697753 16.199336 2.047768 0 0 0
11989 1 0.03388825325127303 30.356554 13.443462 1.627096 0 0 0
11990 1 -0.05914755947722571 25.534676 12.820493 4.510386 0 0 0
11991 4 -0.5757794906383975 25.440831 14.326959 1.044422 0 0 0
11992 2 0.02910312531932706 26.677585 16.896676 5.554236 0 0 0
11993 1 -0.01223921386553267 25.622702 18.392683 1.978652 0 0 0
11994 1 0.2459251910518519 26.944194 18.499447 1.582408 0 0 0
11995 2 0.06376644894218178 30.821294 17.961403 2.365155 0 0 0
11996 1 -0.02059581396569595 26.166029 14.233583 4.758058 0 0 0
11997 1 0.5031243104892786 26.683233 15.210642 0.900746 0 0 0
11998 4 -0.6656568308246852 27.884 14.345247 0.891341 0 0 0
11999 1 0.0664872228825034 30.599028 15.819305 2.222446 0 0 0
12000 2 0.03316871736873869 29.854825 17.938412 4.679988 0 0 0
12001 1 0.0109213916025214 30.946174 14.718887 1.402324 0 0 0
12002 1 0.01743641105151912 29.502261 14.424673 3.525056 0 0 0
12003 1 0.02868809966204129 25.379652 16.997111 2.22743 0 0 0
12004 2 0.3316926658991765 27.611969 13.551234 0.512087 0 0 0
12005 2 0.08743115745660887 25.831194 12.73466 3.456084 0 0 0
12006 1 -0.03877524710850176 25.482417 15.002577 5.978673 0 0 0
12007 2 0.03493872238582463 26.123427 14.830959 3.851324 0 0 0
12008 4 -0.4654437198856446 27.779247 17.304511 1.716368 0 0 0
12009 1 -0.03191877589515691 31.146717 17.053455 1.805776 0 0 0
12010 1 0.04134414861260518 29.84585 15.535999 3.430237 0 0 0
12011 2 0.03209488406790007 35.373756 18.716249 4.671209 0 0 0
12012 1 0.006885875744062965 33.362374 13.541229 2.852213 0 0 0
12013 1 0.1402997801110992 34.713447 15.496661 2.086381 0 0 0
12014 2 -0.03480666832496299 33.782243 18.12445 3.820923 0 0 0
12015 4 -0.3354422979354847 32.641541 18.525399 0.581998 0 0 0
12016 1 0.005455216791073871 31.735422 14.816967 0.238723 0 0 0
12017 4 -0.4656356914844459 37.173152 12.645205 3.016892 0 0 0
12018 1 -0.00157859610481272 34.136455 12.688089 1.834373 0 0 0
12019 1 0.09159802621834603 37.540374 12.780313 0.082923 0 0 0
12020 1 0.4087095903797212 36.647849 12.658169 4.136442 0 0 0
12021 1 0.2288099787370271 37.403296 16.544724 2.402253 0 0 0
12022 1 -0.01755000304759098 35.189008 13.398065 1.052832 0 0 0
12023 1 0.2435382443515961 32.067912 17.138308 0.822814 0 0 0
12024 1 0.2137414760320255 37.241885 16.587835 1.094679 0 0 0
12025 1 0.2824446252125129 37.265887 15.012095 4.75477 0 0 0
12026 4 -0.5000247836530562 33.091905 16.079107 3.809593 0 0 0
12027 1 0.1846569916982191 33.707517 14.9474 2.913879 0 0 0
12028 1 -0.07061614936400618 36.982894 13.7644 5.164995 0 0 0
12029 4 -0.468363537425675 37.162674 15.349149 3.294748 0 0 0
12030 4 -0.4321189030155537 36.555339 15.419172 0.433662 0 0 0
12031 4 -0.495945568696164 34.870162 17.047902 2.222445 0 0 0
12032 1 0.4825801989129914 33.950047 17.165825 3.335632 0 0 0
12033 1 0.04299094590223933 36.039622 12.620949 0.179936 0 0 0
12034 1 0.01739783542746673 32.46231 16.023177 0.056947 0 0 0
12035 1 0.02960543979276957 37.570271 17.726445 0.329752 0 0 0
12036 1 0.239180199474426 35.401576 14.798841 1.180687 0 0 0
12037 1 -0.1049585908999214 37.619601 15.972163 5.764292 0 0 0
12038 1 -0.01978667929832416 37.73145 17.776903 2.995938 0 0 0
12039 1 0.01024030395076309 40.859286 16.80629 4.970426 0 0 0
12040 2 0.3345163478403108 41.17742 12.674143 0.735752 0 0 0
12041 1 0.002655126476180784 41.550343 18.014769 4.528511 0 0 0
12042 1 0.1391332277725779 40.649562 13.623451 2.314769 0 0 0
12043 1 -0.06541663115149744 42.015518 18.15189 3.226523 0 0 0
12044 4 -0.5208325152763104 42.223486 14.773882 0.691087 0 0 0
12045 1 0.009041217742683993 40.963204 15.702013 4.132693 0 0 0
12046 1 0.2733472381881355 41.604518 14.733337 1.983638 0 0 0
12047 1 0.02586723461126097 40.50105 13.319638 3.718797 0 0 0
12048 1 -0.01976241774629314 40.649603 14.340904 4.60769 0 0 0
12049 1 0.4666228544403099 43.303232 15.838038 0.719347 0 0 0
12050 1 -0.1265578563251402 41.520143 15.849861 2.804852 0 0 0
12051 4 -0.4769717773780922 42.730362 17.203772 1.031402 0 0 0
12052 1 -0.002146542813505606 40.749448 14.011006 5.971909 0 0 0
12053 2 0.06362551114338522 39.615727 13.797885 1.842531 0 0 0
12054 1 0.2246177977840136 38.107764 17.451435 5.495546 0 0 0
12055 1 -0.09534493459434761 43.100555 18.668563 5.922466 0 0 0
12056 1 0.2667133537692135 42.00651 17.127537 2.387875 0 0 0
12057 1 -0.03941455839740662 37.972297 17.670661 4.300525 0 0 0
12058 2 0.021930536294286 43.980418 15.578756 1.559093 0 0 0
12059 1 0.3149000927481544 44.397924 18.220745 5.072725 0 0 0
12060 4 -0.4695427460167821 44.676074 18.602469 3.916878 0 0 0
12061 1 0.3250586873459156 45.173832 14.655154 5.638949 0 0 0
12062 1 -0.05708061293283017 44.881583 17.042403 5.793633 0 0 0
12063 4 -0.6162362159656335 45.751474 13.439564 5.037539 0 0 0
12064 2 0.0488443625640832 46.597396 17.367233 3.778453 0 0 0
12065 1 -0.1197829915287607 45.436734 15.914367 5.187871 0 0 0
12066 2 0.3814098574990941 46.289152 13.693087 4.313749 0 0 0
12067 4 -0.461099073145485 46.914694 15.388846 3.371549 0 0 0
12068 1 0.3627982092439098 46.333516 16.268905 3.990336 0 0 0
12069 2 0.03587788335020716 9.717469 24.566917 6.218682 0 0 0
12070 4 -0.518832067237299 11.554655 24.799504 5.052238 0 0 0
12071 1 0.2721115094729985 12.537238 24.604405 3.961293 0 0 0
12072 1 0.007125748779392947 15.688997 24.928568 1.134053 0 0 0
12073 2 0.07169682124262976 12.914452 22.808716 5.951812 0 0 0
12074 1 0.03755710497459941 16.891997 24.214179 1.485263 0 0 0
12075 1 0.01872791251652264 17.988913 24.29149 0.55386 0 0 0
12076 1 -0.02267703780180261 17.48053 20.897957 6.190984 0 0 0
12077 4 -0.4797205100714804 14.043344 21.494263 1.687469 0 0 0
12078 1 0.08872021001048856 18.164303 22.682747 2.97589 0 0 0
12079 1 0.03886995149593669 14.657581 23.849385 3.177807 0 0 0
12080 1 0.006993008949868094 16.052231 22.423214 4.717945 0 0 0
12081 1 0.03386425512158298 14.902692 22.196696 5.555313 0 0 0
12082 1 0.02203359212600103 13.749022 22.869752 5.251769 0 0 0
12083 1 0.0306563054059963 16.983038 23.408812 2.660517 0 0 0
12084 2 0.02629947365222712 15.480886 19.997622 1.305205 0 0 0
12085 4 -0.4764328699409452 14.454625 19.621207 3.206182 0 0 0
12086 1 -0.033058107719118 13.616487 23.72826 4.109736 0 0 0
12087 1 0.01799594067621242 17.210712 21.606812 4.919983 0 0 0
12088 4 -0.4789968694038499 17.451589 20.301383 2.03287 0 0 0
12089 1 0.01806921077938711 15.894435 23.205401 3.530066 0 0 0
12090 1 0.5915893761826713 14.748625 20.547757 1.997441 0 0 0
12091 1 -0.008439238678140972 18.278425 21.735325 4.025568 0 0 0
12092 1 0.04871654965145991 16.9455 19.02764 3.101673 0 0 0
12093 1 0.01499894125842507 14.578297 24.635174 2.024401 0 0 0
12094 1 0.0137987390735636 21.224362 18.903567 4.11696 0 0 0
12095 1 0.2673064616884802 18.851605 19.945265 1.895578 0 0 0
12096 2 0.01338944494390344 19.279528 19.419104 0.994535 0 0 0
12097 1 -0.06553359531358632 24.636072 22.832129 4.851733 0 0 0
12098 1 -0.01946713590078329 24.770647 21.230704 4.986924 0 0 0
12099 1 -0.007276834969174657 20.250687 23.793861 0.12323 0 0 0
12100 2 0.03863518594051827 22.608058 24.517298 3.647541 0 0 0
12101 2 0.04452783776158379 23.604743 23.1003 5.084089 0 0 0
12102 1 0.08824853844528133 21.057658 19.716569 2.965318 0 0 0
12103 1 -0.06157693302955495 23.324539 19.082651 2.248718 0 0 0
12104 1 -0.03055922675485208 19.305383 23.029751 2.243124 0 0 0
12105 1 0.211556016028921 19.428739 20.972504 4.132293 0 0 0
12106 1 -0.03597640998242266 19.493135 20.067533 5.299057 0 0 0
12107 1 -0.07037198351486262 19.670721 20.168543 2.889445 0 0 0
12108 1 -0.02471440105647281 24.663887 19.531605 1.850526 0 0 0
12109 2 0.07346583100704356 24.081255 20.665427 4.334838 0 0 0
12110 1 0.03228692161211307 19.185769 23.720144 0.989605 0 0 0
12111 1 0.01521304745213999 22.94647 24.892961 2.637472 0 0 0
12112 1 0.01181981021742453 21.377619 23.068234 0.465533 0 0 0
12113 1 0.2830893359819813 20.558486 22.641261 2.71534 0 0 0
12114 1 -0.06929716521725671 21.477925 22.409539 1.706107 0 0 0
12115 1 0.03939691600564559 22.427318 21.360394 1.732318 0 0 0
12116 4 -0.5273872078662183 20.656516 22.030272 4.031697 0 0 0
12117 1 -0.002078012398899904 22.284046 20.108328 2.275259 0 0 0
12118 1 0.2368563448108343 24.792224 20.569563 1.037192 0 0 0
12119 1 -0.03956561325014075 23.685416 21.513718 1.016172 0 0 0
12120 2 0.05998986083114775 21.890765 23.000059 5.971102 0 0 0
12121 1 0.05374820819816863 20.440188 19.032975 5.245507 0 0 0
12122 2 0.058574907191295 22.424157 20.999606 5.341986 0 0 0
12123 1 0.04566894228510082 23.749507 22.622834 0.160436 0 0 0
12124 2 0.06909641151928848 24.802045 23.114437 3.757858 0 0 0
12125 1 -0.05434366512213801 28.4076 21.318826 2.732642 0 0 0
12126 2 0.03684610431547124 28.802874 24.054262 2.799692 0 0 0
12127 2 0.04949208728827312 29.251332 19.330367 2.840728 0 0 0
12128 2 0.02849313839644581 25.8511 20.970989 4.701756 0 0 0
12129 2 0.02043538468215232 27.987246 22.804732 4.832119 0 0 0
12130 2 0.03104468287227215 27.493482 19.388531 3.501299 0 0 0
12131 1 -0.009224806429734732 29.12493 20.016273 4.867788 0 0 0
12132 2 0.0164663780826965 29.901477 25.024761 1.609074 0 0 0
12133 2 0.04743195992803847 27.403576 19.475661 1.327071 0 0 0
12134 4 -0.5489030449977346 26.033014 23.655354 1.63737 0 0 0
12135 2 0.01941665134783513 30.939123 18.99958 5.657984 0 0 0
12136 2 0.04862654256042114 27.590326 21.795555 3.243904 0 0 0
12137 2 0.0712909732571798 28.22875 21.265536 1.595257 0 0 0
12138 1 -0.04466715393800123 27.901354 23.939503 4.821441 0 0 0
12139 2 0.01899961979553442 29.392719 21.845986 2.876398 0 0 0
12140 4 -0.3943614295906896 25.968885 20.678873 0.107537 0 0 0
12141 1 -0.05467174567018256 30.343716 18.965985 4.742442 0 0 0
12142 1 -0.03673485616841549 28.519028 19.896143 3.420876 0 0 0
12143 2 0.04200362517203717 26.986181 24.29915 4.45278 0 0 0
12144 1 -0.03046662847989586 29.071647 24.377471 3.870569 0 0 0
12145 2 0.04738090050078297 25.323321 23.34015 5.516786 0 0 0
12146 2 0.02524924362999663 31.210169 23.751386 1.175723 0 0 0
12147 2 0.02283639505071502 28.074469 24.374273 5.83574 0 0 0
12148 2 0.02568685244921936 27.08094 19.362928 5.305491 0 0 0
12149 2 0.01096476985206073 29.425123 21.066856 5.072098 0 0 0
12150 1 -0.04473105409125584 28.056286 19.497106 5.896997 0 0 0
12151 1 0.3776627348749958 26.121882 23.481373 0.446168 0 0 0
12152 2 0.01299051462639429 30.037972 23.952546 4.096017 0 0 0
12153 2 0.02561163236830077 30.916355 19.165284 3.79114 0 0 0
12154 2 0.0373052756793977 32.336089 20.953033 2.482295 0 0 0
12155 2 0.06738949289366516 34.127738 20.334826 2.291111 0 0 0
12156 2 0.01238695753062834 32.219728 24.557168 2.589797 0 0 0
12157 1 -0.02813288523950693 35.214233 24.523719 5.35373 0 0 0
12158 1 0.008893310155492003 32.641911 24.669219 5.375783 0 0 0
12159 2 0.06553676683238309 35.847288 21.843536 2.820701 0 0 0
12160 1 -0.04971197550086097 33.266669 20.550519 3.032242 0 0 0
12161 2 0.008902942440384231 35.658023 21.58919 5.483542 0 0 0
12162 2 0.01137104979029736 32.66153 20.992098 5.760936 0 0 0
12163 1 -0.0346111136494209 33.904996 24.922227 4.489787 0 0 0
12164 2 0.03406617773167305 33.053198 19.586596 3.55486 0 0 0
12165 2 0.03026651996181414 34.0826 23.055642 1.956346 0 0 0
12166 1 -0.01979731628019697 32.291644 23.304424 5.654554 0 0 0
12167 1 -0.03604743967125648 32.721956 21.84564 5.026906 0 0 0
12168 2 0.0197410419896647 33.77265 19.398331 5.28655 0 0 0
12169 1 -0.0331867511063151 34.854271 19.512948 5.288723 0 0 0
12170 1 -0.02688587606706939 33.649142 24.622375 0.444994 0 0 0
12171 2 0.0128702199650001 35.24776 23.430261 5.593143 0 0 0
12172 2 0.01118086493675622 34.254404 22.551446 3.464987 0 0 0
12173 2 0.02226150012491036 37.59487 23.190117 5.476105 0 0 0
12174 1 -0.01793459818844537 37.635364 24.261953 5.248742 0 0 0
12175 2 0.0550405678252878 33.155951 22.407006 0.600644 0 0 0
12176 4 -0.2087405926180709 36.919928 23.505314 0.4482 0 0 0
12177 1 -0.03093884063191145 36.429533 24.789953 4.397935 0 0 0
12178 1 0.1060977285434919 37.638909 21.08038 3.820725 0 0 0
12179 2 0.07585062958763246 34.731621 24.688202 0.200955 0 0 0
12180 2 0.0164964750809066 33.881287 24.268375 3.635587 0 0 0
12181 1 -0.0160045209984953 35.207382 20.982538 4.673083 0 0 0
12182 1 -0.01502209141709457 33.880048 21.628975 3.977345 0 0 0
12183 2 0.04481570838123773 36.233457 24.222825 3.488945 0 0 0
12184 2 0.05621349941578706 36.020777 20.001038 2.783246 0 0 0
12185 1 -0.05605269568411722 36.074925 20.933799 3.403411 0 0 0
12186 2 0.01067868777687512 31.813544 21.715785 4.381494 0 0 0
12187 2 0.01504555969059372 31.750346 22.762941 2.672348 0 0 0
12188 1 -0.02355976029790176 33.318888 23.261786 1.228764 0 0 0
12189 1 -0.05642064476147309 31.984534 23.601547 1.962078 0 0 0
12190 1 0.03302532724407084 38.107928 18.936192 0.826256 0 0 0
12191 2 0.09933894451095436 41.134891 19.376802 6.231565 0 0 0
12192 1 -0.04547853871005019 38.117737 19.067011 2.227949 0 0 0
12193 1 0.01659457469569859 41.867277 19.128097 5.485062 0 0 0
12194 2 0.008449782257946802 37.983373 21.493408 4.759395 0 0 0
12195 2 0.03756262064548702 41.963371 24.160123 4.052599 0 0 0
12196 1 0.173790171675084 38.537945 20.205472 2.980461 0 0 0
12197 4 -0.417072183506552 38.551923 21.618573 2.614545 0 0 0
12198 2 0.04343630390980435 40.738981 21.290996 3.915526 0 0 0
12199 1 -0.02665810937834768 40.029868 23.758056 4.978168 0 0 0
12200 1 -0.02579029227124106 41.464906 21.91635 4.480452 0 0 0
12201 1 -0.04492561800775381 42.925304 21.545237 4.001432 0 0 0
12202 2 -0.006333772436528435 40.386221 19.725448 1.503221 0 0 0
12203 1 -0.03592972490046761 41.115088 23.366849 3.93234 0 0 0
12204 2 0.04662271677308247 41.288771 21.839565 5.558086 0 0 0
12205 1 0.3676166448938624 40.035098 20.374349 0.593509 0 0 0
12206 2 0.03717900475982419 39.526494 22.81384 5.449991 0 0 0
12207 2 0.06265528149103844 42.708241 21.090356 3.028302 0 0 0
12208 2 0.05544792869542549 43.450543 22.549347 3.857973 0 0 0
12209 2 0.08285982234810201 40.703314 23.226555 2.904801 0 0 0
12210 1 -0.03006959806534464 38.902592 24.623119 4.323591 0 0 0
12211 2 0.0696534969468761 38.777667 24.395347 3.271825 0 0 0
12212 2 0.06122747030341913 40.48167 24.390989 5.70738 0 0 0
12213 2 0.08011393316863825 43.49088 20.909942 4.703502 0 0 0
12214 2 0.09507186881442853 42.438738 19.11117 2.813924 0 0 0
12215 4 -0.3900296287946616 40.766928 21.291627 0.253217 0 0 0
12216 2 0.06355779395258504 37.783287 24.705012 6.248175 0 0 0
12217 2 0.03516788826977185 1.301003 30.994495 6.221047 0 0 0
12218 2 0.07968811120792244 4.338371 31.196187 5.288832 0 0 0
12219 2 0.04789894324261346 5.340344 28.909856 5.328754 0 0 0
12220 4 -0.498614156850677 4.930388 30.028766 3.062308 0 0 0
12221 4 -0.4817987146582327 3.449307 28.096179 3.166467 0 0 0
12222 1 0.5966837105377127 4.546764 28.564819 2.900262 0 0 0
12223 2 -0.006990969951798645 5.489162 27.913966 2.739652 0 0 0
12224 4 -0.299320346966388 5.018061 30.361613 0.501237 0 0 0
12225 2 0.1187123612687349 3.142867 30.162178 4.382962 0 0 0
12226 1 -0.03107346226820031 3.353799 30.634113 5.347848 0 0 0
12227 1 0.01105703415121435 7.000778 27.742968 6.10921 0 0 0
12228 1 0.01872516508550117 8.427022 27.595633 5.966107 0 0 0
12229 1 0.2658843885327891 6.47013 30.421912 0.572442 0 0 0
12230 1 -0.01821993927140636 7.133892 30.183255 1.818355 0 0 0
12231 1 0.1397883487066121 6.477758 30.153347 3.14471 0 0 0
12232 1 0.002345321995025506 10.694892 30.877728 0.738876 0 0 0
12233 1 0.01798310495693694 8.538214 30.239083 1.789051 0 0 0
12234 2 0.09709348751096873 10.11435 25.705061 3.067308 0 0 0
12235 4 -0.4874556147871403 8.726248 27.101389 2.011097 0 0 0
12236 1 0.3228892855539656 9.539901 27.15067 1.072538 0 0 0
12237 1 -0.04313885811387784 12.280056 25.250191 2.744206 0 0 0
12238 1 0.05725849061006871 8.44548 28.968349 3.930452 0 0 0
12239 1 -0.0003834984670300351 11.304898 28.943255 3.824641 0 0 0
12240 1 0.01173040200726681 6.370069 28.602821 5.155876 0 0 0
12241 1 -0.002479409203988168 11.324499 27.381535 5.593788 0 0 0
12242 1 0.008226976188072464 9.159096 28.331837 4.966154 0 0 0
12243 1 0.00675768080319956 12.066538 26.960924 0.578564 0 0 0
12244 1 0.04706931765941192 11.03135 25.848454 2.452866 0 0 0
12245 1 0.01245692331984106 9.179119 29.732812 2.959176 0 0 0
12246 1 -0.005997308878504085 11.293517 30.426431 1.914427 0 0 0
12247 1 0.002379696866466563 10.601191 29.79206 2.978223 0 0 0
12248 1 -0.002643743222505947 7.077372 29.171424 4.120127 0 0 0
12249 1 -0.0003768413016185253 10.577758 28.192212 4.801259 0 0 0
12250 1 -0.0593354360332072 10.96993 26.610926 1.357216 0 0 0
12251 1 0.001773030475995068 9.271427 30.697853 0.637313 0 0 0
12252 2 -0.008916286997164957 9.192705 27.592447 0.096206 0 0 0
12253 1 -0.01423499216937398 13.436519 29.71318 2.973337 0 0 0
12254 1 0.01542972403326671 13.34879 25.381453 1.809355 0 0 0
12255 1 0.2693424401585993 17.744823 25.945427 5.900496 0 0 0
12256 1 -0.04620676409610437 15.589476 30.569334 2.105266 0 0 0
12257 1 0.005506026650833013 13.225235 26.268424 0.768847 0 0 0
12258 1 -0.001362266311279385 12.737026 28.938773 3.874138 0 0 0
12259 1 0.03549983098533913 12.740296 27.16957 5.599749 0 0 0
12260 1 -0.002428967230446216 12.72545 30.416881 1.980485 0 0 0
12261 1 0.02616410644146882 14.909311 27.842602 4.528872 0 0 0
12262 1 0.2694101680466222 17.042756 28.799904 3.615795 0 0 0
12263 1 0.07166214802018905 17.021647 30.664567 2.109378 0 0 0
12264 1 -0.04498913376164668 15.612956 26.879467 5.358863 0 0 0
12265 2 0.06786624875168082 16.902322 30.247242 5.552825 0 0 0
12266 1 0.02188153990702415 14.875854 29.642925 2.877842 0 0 0
12267 2 0.02142410606611143 12.612711 30.210902 5.843348 0 0 0
12268 2 0.03784002911547812 14.032569 31.00668 5.179971 0 0 0
12269 2 0.04289390453388502 18.788068 29.843938 2.928464 0 0 0
12270 1 0.005230909214170304 14.853392 25.968389 6.21877 0 0 0
12271 1 -0.06438683850316647 13.527173 30.835852 6.127395 0 0 0
12272 1 0.01287766803338848 15.591892 25.765699 0.057722 0 0 0
12273 1 -0.02860842875439462 13.467465 27.943915 4.651932 0 0 0
12274 1 -0.05775175556371692 17.695021 29.815337 2.913199 0 0 0
12275 2 0.03493489583649383 18.765072 28.067026 0.021408 0 0 0
12276 4 -0.4863061118241191 17.836024 27.830946 4.336749 0 0 0
12277 1 -0.02384497623870756 13.520156 31.086647 0.976587 0 0 0
12278 1 -0.06526380887758601 15.626879 28.788696 3.646435 0 0 0
12279 1 0.1864605872102821 17.034238 26.818161 5.221917 0 0 0
12281 2 0.01715016697909364 20.622478 30.404201 5.801515 0 0 0
12282 2 -0.06946729283494021 22.383185 26.1594 5.381869 0 0 0
12283 1 -0.02475190890601282 23.518403 26.259703 2.607538 0 0 0
12284 2 0.01907399712570949 23.587496 26.654517 1.575448 0 0 0
12285 4 -0.5535391778990792 19.136366 25.452661 3.527495 0 0 0
12286 2 0.01605030361425967 23.662814 31.101624 0.365679 0 0 0
12287 2 0.01436489220259247 23.789329 29.80295 4.194354 0 0 0
12288 2 0.01813271196354684 20.789196 29.351174 0.125469 0 0 0
12289 2 -0.05621915970473564 20.915789 25.98929 4.355299 0 0 0
12290 4 -0.5681464340674213 19.29696 25.902092 5.887859 0 0 0
12291 2 0.06250226445467782 19.419515 26.592386 0.984714 0 0 0
12292 2 0.01956696150868776 22.864528 27.015899 3.132239 0 0 0
12293 2 0.001407533771676621 23.541716 28.344649 0.43025 0 0 0
12294 1 -0.0478672786806188 19.899635 29.580753 5.618674 0 0 0
12295 2 0.05059018958856978 19.218744 28.206703 1.77322 0 0 0
12296 2 0.07104912306780323 19.063317 29.802299 4.958539 0 0 0
12297 1 -0.05350038526386498 19.42513 27.701108 0.794688 0 0 0
12298 2 0.01299267631667576 21.587886 28.248759 1.329393 0 0 0
12299 1 0.6450143196662923 19.814446 25.815806 4.488116 0 0 0
12300 2 0.04082418634680273 20.40471 28.701717 5.26589 0 0 0
12301 1 -0.0300661999400311 20.859571 28.258729 0.453568 0 0 0
12302 2 0.02644742844223277 22.527385 31.001246 4.706137 0 0 0