LAMMPS data file via write_data, version 19 Nov 2024, timestep = 3880000, units = real

12647 atoms
4 atom types

0 56.53285 xlo xhi
0 156.51956 ylo yhi
0 56.53285 zlo zhi

Masses

1 12.011
2 1.008
3 14.007
4 15.999

Atoms # charge/kk

1 2 0.04116235015465293 16.326838 0.417304 4.979356 0 0 0
2 2 -0.008759358924401949 15.622682 2.266684 6.129689 0 0 0
3 4 -0.6631214388737062 17.626739 3.283965 6.152518 0 0 0
4 1 -0.01672231819755484 17.075025 0.169686 5.78964 0 0 0
5 1 0.2436916440279912 16.137179 3.243069 6.260623 0 0 0
6 4 -0.4257350922224001 17.539933 1.280931 0.818909 0 0 0
7 1 0.3471156783642486 17.57598 2.51644 0.987959 0 0 0
8 2 0.02035322637260279 17.019775 2.994047 1.85343 0 0 0
9 4 -0.5069194691802351 17.564625 5.264426 1.222555 0 0 0
10 2 0.05808824468984185 18.315529 2.225912 3.24727 0 0 0
11 1 0.2944207664406295 18.480948 4.698245 0.249295 0 0 0
12 2 0.04940400653418661 14.542163 5.721103 2.88116 0 0 0
13 1 -0.1557838930860809 18.409337 3.342465 0.008228 0 0 0
12381 2 0.06943607901034228 14.503952733425198 4.36254060689116 0.20980358575005534 0 0 1
14 4 -0.4829637377576441 25.022962 4.437617 6.227899 0 0 0
15 2 0.0704266335744302 18.91443 4.461847 4.249375 0 0 0
16 2 0.06650181358905934 19.010696 1.810956 4.84339 0 0 0
17 1 0.002788090504292601 24.180562 1.935452 6.206738 0 0 0
18 1 -0.031001615884564 20.486634 0.228875 3.614588 0 0 0
19 1 0.2670892978002929 22.401805 1.178327 1.768794 0 0 0
20 2 0.1176540030535389 23.84309 2.426456 5.267121 0 0 0
21 2 0.07967348496527969 23.014773 2.584566 0.225128 0 0 0
22 1 -0.05798303574006376 20.704444 3.854557 5.153235 0 0 0
23 2 0.06729143062041414 20.18077 3.479148 6.051522 0 0 0
24 1 -0.01597549111003456 24.148862 0.762108 0.199582 0 0 0
25 1 0.242822307085416 20.35706 1.482278 3.157455 0 0 0
26 2 0.02085776036555992 20.850385 0.988375 6.147894 0 0 0
27 1 -0.07280545901038085 19.222657 2.285417 3.848862 0 0 0
28 2 -0.04691846746941765 21.245372 5.373069 2.245863 0 0 0
29 2 0.05915704518072871 20.226075 4.095288 2.964714 0 0 0
30 1 0.5803788272373482 22.212077 5.472948 2.858834 0 0 0
31 1 -0.005395744841763914 19.722152 3.800592 3.944649 0 0 0
32 2 0.06748480632360872 21.500997 3.166869 4.812651 0 0 0
33 2 0.1198848857507658 20.975365 4.902414 5.348332 0 0 0
34 1 -0.04080172515090026 23.175953 1.59545 0.691719 0 0 0
35 4 -0.4471037797075053 23.219108 4.81694 2.578259 0 0 0
36 4 -0.5127544592681127 21.31349 2.117275 2.203496 0 0 0
37 2 0.06361740164329584 24.943746 6.127165 4.799715 0 0 0
38 1 0.2922754349417709 25.267141 5.811523 5.813585 0 0 0
39 4 -0.470251652578041 31.334959 1.364443 6.068185 0 0 0
40 1 0.006489437848427991 28.24946 3.554965 5.940483 0 0 0
41 1 0.2611735491690703 29.524909 0.332508 4.059436 0 0 0
42 4 -0.5349392733695288 25.762453 1.281575 3.238531 0 0 0
43 2 0.02345157200318597 28.530746 0.643818 3.563655 0 0 0
44 2 -0.007211817814577181 26.150346 2.267671 1.595347 0 0 0
45 1 -0.06153428521042435 27.666921 1.544462 5.6556 0 0 0
46 4 -0.5315950877432541 28.46362 3.952702 0.981408 0 0 0
47 1 0.402476166832127 29.911667 1.828339 1.41058 0 0 0
48 2 0.02216451315758308 28.163579 5.580437 2.287319 0 0 0
49 4 -0.6493023032368554 27.248146 3.324472 3.328985 0 0 0
50 2 0.3354652756189542 28.089765 3.322518 2.79477 0 0 0
51 4 -0.533670932089236 30.314401 5.212708 2.159481 0 0 0
52 2 0.04798496696622796 29.506422 2.37258 2.347396 0 0 0
53 4 -0.4942053966376911 30.735099 1.190782 3.688122 0 0 0
54 2 0.09520319973496462 27.142755 0.74423 5.135292 0 0 0
55 1 0.6232992472329441 26.38683 2.134891 2.663111 0 0 0
56 1 0.4391332030245508 28.904363 5.293981 1.460189 0 0 0
57 1 0.2320107828240977 27.731215 2.782221 5.016023 0 0 0
58 4 -0.4032391570772058 29.045352 1.295129 0.723646 0 0 0
59 2 0.1264238032800737 25.882016 5.465521 0.386404 0 0 0
60 2 0.07188248543086082 26.7751 2.939797 0.210762 0 0 0
61 1 -0.05647217056204568 31.393086 1.86599 1.001356 0 0 0
62 2 0.01040640901391024 35.290264 0.016384 4.693627 0 0 0
63 2 0.01985013666797925 35.604726 0.31121 2.833224 0 0 0
64 2 0.03692854446709327 31.765457 4.38079 3.99986 0 0 0
65 1 0.3086639715623582 32.001745 1.898988 3.392742 0 0 0
66 1 -0.04481893193185737 32.307314 2.0613 2.082989 0 0 0
67 1 0.5153850545770209 32.267121 5.417582 4.216171 0 0 0
68 1 -0.002177673703299541 36.860837 5.039469 5.795768 0 0 0
69 1 0.02584784775587809 35.004372 3.48726 5.088026 0 0 0
70 1 0.2889934932437716 32.597326 2.029418 5.72414 0 0 0
71 4 -0.547783258036377 33.770779 5.381568 4.012953 0 0 0
72 1 0.2582157988598924 34.036141 5.749504 2.605148 0 0 0
73 1 -0.1130348959698402 32.924563 2.212362 4.414859 0 0 0
74 1 0.03888680811677808 34.217586 2.858488 4.118473 0 0 0
75 1 -0.0002080053728622196 33.714578 2.558591 1.689048 0 0 0
76 1 -0.004745379322857519 34.63891 2.823826 2.767323 0 0 0
77 1 0.01756423793295772 36.208958 4.168304 4.822813 0 0 0
78 1 -0.009633410627447204 35.981678 3.4564 2.417325 0 0 0
79 1 0.01527653906375134 36.592219 4.351276 3.464606 0 0 0
80 1 0.02213223705548119 36.49524 3.658034 1.13128 0 0 0
81 1 0.02277616344641802 33.812526 2.64814 0.332741 0 0 0
82 4 -0.6356052737205308 31.933408 5.714278 5.630818 0 0 0
83 1 -0.04283238401337006 37.542857 4.39847 0.632356 0 0 0
84 2 0.3609226515683963 32.765008 5.998714 6.000989 0 0 0
85 1 -0.00403780100337197 33.955388 6.15641 0.32874 0 0 0
86 1 0.2404447572097941 39.949159 5.945163 0.098172 0 0 0
87 1 -0.008457425532188693 37.702441 5.192271 3.055021 0 0 0
88 1 0.005229540529111817 37.884119 5.935716 5.347255 0 0 0
89 1 0.032284918534608 38.236891 5.142247 1.717689 0 0 0
90 1 0.005147312922440072 38.41384 5.943337 4.056831 0 0 0
91 1 -0.05555667189560945 39.391981 5.928357 1.430425 0 0 0
94 2 0.03182247626919654 12.590142409931588 11.613823007934531 2.2980766805122 0 0 0
95 1 0.01510937698939783 17.983564 8.046381 3.738258 0 0 0
96 4 -0.5218695192632918 15.614694 9.521409 5.448856 0 0 0
97 1 0.2865636544362973 16.065993 9.199161 4.095399 0 0 0
98 1 0.01227642645386991 18.605474 7.19523 2.713317 0 0 0
99 2 0.04064440849554381 18.481580073313356 10.41843221044622 1.473068243630678 0 0 0
100 2 0.1000936249967583 17.895594958966534 10.520436613626224 5.2539489153349095 0 0 0
101 1 0.2156633673149452 15.79144 6.951643 3.906798 0 0 0
102 1 0.07258678493957914 15.970989 9.730217 1.595479 0 0 0
103 4 -0.462758115747139 15.276709 6.565758 5.261705 0 0 0
104 4 -0.4692717184753682 15.44 7.25962 1.575646 0 0 0
105 1 -0.01405498786124276 18.151438 9.900611 0.558264 0 0 0
106 1 0.2172961740911702 16.835289 7.681616 1.113584 0 0 0
107 1 -0.06834053578038699 17.037031 8.979758 1.010052 0 0 0
108 1 -0.04797311078763565 15.512151 9.829603 2.960819 0 0 0
109 1 -0.01822586982907389 13.580929286397222 11.123275366877419 2.2117026476316064 0 0 0
110 2 0.05603770016063919 17.139719 7.188855 5.895727 0 0 0
111 1 0.02206518612260736 18.497734 9.704996 5.595882 0 0 0
112 1 -0.1112020468833812 16.603761 8.039678 3.841901 0 0 0
113 1 0.1553840172023561 17.997048 6.749474 1.234218 0 0 0
114 1 0.02254051860017301 14.324811409644564 10.593137830185805 3.256327750091563 0 0 0
115 1 -0.0121542116149909 15.483881529551493 10.703096533718444 0.7272970373130072 0 0 0
116 2 0.07899090666577212 13.940090669551704 10.595670465648913 4.286376033741102 0 0 0
117 1 0.02540158261291911 14.239530978294066 11.310154353295225 0.9578017559988785 0 0 0
118 1 0.2162063789597275 15.338255 6.459673 2.813537 0 0 0
119 4 -0.5142858101419631 22.117301 6.375428 4.040602 0 0 0
120 1 0.5390339299153595 22.119718759817655 10.073309707959876 3.16098606092263 0 0 0
121 2 0.09057812201447495 20.933228 8.590477 5.807459 0 0 0
123 4 -0.5119189384235804 22.07768772149478 10.598155943261588 4.503497873954524 0 0 0
124 1 -0.01277560616374398 20.319783 8.152563 4.956617 0 0 0
125 2 -0.01452069279667055 23.049856 9.922957 2.597205 0 0 0
126 2 0.09851331057592878 22.973851 8.460032 5.562981 0 0 0
127 2 0.01918537992250062 24.33120470053916 10.267048115369898 4.332496354461233 0 0 0
128 2 0.3505083734242346 20.284857009124938 10.098226889262142 2.924375596409482 0 0 0
129 1 -0.01251716350675084 19.095338 6.8363 0.185838 0 0 0
130 1 0.2545885915637093 20.72424 7.122176 4.087868 0 0 0
131 1 0.01872749931780362 18.928899 8.539325 4.816643 0 0 0
132 4 -0.7446494946196328 20.90141334126991 9.781089975230573 2.387238449116255 0 0 0
133 1 -0.04106078403178711 19.753142 7.006327 3.194518 0 0 0
134 1 0.1260288326328106 23.60019433999082 10.853591915823284 5.0305121456048445 0 0 0
122 1 0.2762363189326161 23.887124334479182 12.235595996454865 5.0412612690302945 0 0 0
137 1 -0.02742290188156495 26.081885 7.999419 6.102289 0 0 0
138 1 0.03519255432684133 29.125339 6.679196 6.07506 0 0 0
139 1 0.2310389468198443 30.122036 8.668455 6.086014 0 0 0
140 2 0.3769002980942543 31.047266305438097 10.42560551523524 6.036028623969888 0 0 0
141 4 -0.6033362572162794 30.468322 9.988357 5.445762 0 0 0
142 2 -0.0110482593773136 25.963809 9.764791 4.324188 0 0 0
143 1 -0.08262760996468155 30.489988 7.689325 1.581119 0 0 0
144 1 -0.03386059495218299 29.216736 7.678206 5.291705 0 0 0
145 2 0.0149192925694273 25.821245 8.216907 5.050261 0 0 0
146 1 0.2898673899888354 26.70927625642532 10.377019136869116 4.882905210242983 0 0 0
147 2 0.05119751455036053 28.833348 7.81222 4.312677 0 0 0
148 4 -0.4577901894428522 27.02785221243591 11.48403985821146 4.360098979351939 0 0 0
149 1 -0.003459313227940014 31.07304638177532 10.014344121810964 0.859066110819825 0 0 0
150 2 0.0898782083449633 29.67767357631772 11.365086667909559 3.2750803834933726 0 0 0
152 1 0.03566767299917219 29.510907 7.606381 0.563837 0 0 0
153 1 0.2664584152515551 30.881808 6.553537 2.371721 0 0 0
154 1 -0.09902524639900791 28.731702 6.430193 0.441958 0 0 0
155 1 0.03853849575576466 31.206629 8.896941 1.764381 0 0 0
151 2 0.09947684198677725 28.998606353803638 12.030687818703647 5.288425286910605 0 0 0
203 1 0.1706959631963437 29.804665040783927 12.481992723880643 3.262171309318582 0 0 0
136 1 -0.05591258272538539 27.249784847568367 10.116336174464323 6.280783700002173 0 0 0
156 1 0.002660489831750867 31.612233961409032 12.387935422135211 0.2106440635122276 0 0 0
157 1 -0.009456334396438353 35.442647928529624 11.705358704409996 5.295446853053252 0 0 0
158 1 0.08303588786832479 32.72943842095585 10.296312183156166 3.0669209704310267 0 0 0
159 1 0.01445349074511585 36.304812 7.87544 2.89924 0 0 0
160 1 -0.006483316299782053 36.040160125423355 10.470853819030054 1.4196079909647894 0 0 0
161 1 0.01187339361891908 35.510962 7.772106 1.861696 0 0 0
162 1 0.266210821191493 33.954737 9.330779 5.005818 0 0 0
163 1 -0.01020538695851854 34.495466 9.131372 0.008779 0 0 0
164 1 -0.06867588591032105 32.12559 9.009412 2.814295 0 0 0
165 1 -0.00523200323999619 37.076244 8.526311 3.675615 0 0 0
166 1 -0.08513381870261119 34.841002 9.466773 6.025059 0 0 0
167 1 0.01112108213941769 34.39983835235143 11.611150463543002 4.3202910679195075 0 0 0
168 1 -0.01630999114272251 32.62097793020376 11.362668964210895 2.1885483154346863 0 0 0
169 1 0.3244216755990572 32.351122 7.913997 3.661251 0 0 0
170 1 -0.005885067730811891 36.949285894758 10.832932607225894 2.505206238097601 0 0 0
171 1 0.007317304308249454 37.450266 9.798292 3.691219 0 0 0
172 1 -0.01004764430092969 35.40009 9.061123 1.157388 0 0 0
173 4 -0.4896420163105348 33.259513 8.013442 4.83461 0 0 0
174 1 -0.03868928022627632 33.656658301153875 10.395486564445958 4.120811347327421 0 0 0
175 1 -0.08378020205116875 34.658396 6.439065 1.613204 0 0 0
176 1 0.001473648986179254 31.73840136169352 11.275697873079691 1.051769410279548 0 0 0
177 1 -0.1350114996534169 31.790162 6.691348 3.36161 0 0 0
179 1 -0.01788682543967605 35.62393707835568 11.326519319009858 0.3978969430953786 0 0 0
178 1 0.001497999842345736 35.63212787340902 10.57357816113907 6.164522327375474 0 0 0
180 1 0.01515551288883049 37.6321150676367 11.939027306666873 2.483543319910304 0 0 0
181 1 0.01107239764901511 38.142313825797466 9.879039433091815 4.8531974517821626 0 0 0
182 1 0.02153536250471259 39.660749 7.409586 6.118816 0 0 0
183 1 0.04186540334408336 38.59205710319297 10.255149280395182 5.902957384994982 0 0 0
185 1 -0.03029250895369478 41.960299 8.004704 3.286562 0 0 0
186 2 0.1112102358401438 42.886986 9.485975 5.468565 0 0 0
187 1 0.0216788185010899 41.972306 8.99081 5.619712 0 0 0
189 1 0.003277929876466053 40.112391 6.683043 2.488777 0 0 0
190 1 0.003228925235124237 39.562515 6.70947 3.775116 0 0 0
191 1 0.04809024965026807 41.444763 8.175312 4.575909 0 0 0
192 1 0.3401409600546919 43.272405 8.715524 3.132636 0 0 0
193 1 0.0122614994329895 40.279557 7.405798 4.816715 0 0 0
194 2 0.1025327642080745 42.709828 7.817979 0.484701 0 0 0
195 1 0.03682927583728348 41.384985 7.323 2.219126 0 0 0
196 1 0.002209971213067104 41.810703 7.32464 0.846859 0 0 0
197 2 0.03309750181190201 43.689611 9.425692 3.912953 0 0 0
198 4 -0.4376908126673139 43.933546 8.596809 2.073693 0 0 0
188 4 -0.5534059930125629 41.19669072279948 10.802106497390891 3.5746765013919224 0 0 0
184 1 0.5819457218625771 41.9127448273367 11.791375573876252 3.717284152781883 0 0 0
277 4 -0.4944593112041441 42.09203886135897 12.459602139101106 5.050251363719615 0 0 0
275 2 -0.04094593541707508 42.612782779372175 12.110441188234205 2.8608835821597935 0 0 0
92 2 0.0707778939601785 12.643148908053668 12.566978210470609 0.2406500633363699 0 0 0
199 4 -0.4710344495714531 23.701929987216722 12.96147368018711 3.785121865713625 0 0 0
200 1 -0.05730941709175087 24.588399097249955 12.803144359911705 6.072525973764612 0 0 0
201 1 0.2884692491765896 24.34694230173346 14.312675618873625 3.64057362363462 0 0 0
202 2 0.06839280131358587 24.219384666275584 14.738966846231099 2.648950087512149 0 0 0
217 1 -0.0835351285168906 25.04463693475062 14.827847386203516 4.664757379840472 0 0 0
210 1 0.05398061866758697 25.091874886774853 14.1324718592152 5.964480733809365 0 0 0
214 4 -0.4347335607816041 28.79269399012998 13.103191423192113 2.2083104120965125 0 0 0
215 4 -0.5353613020743916 25.949324448518812 16.38110674422385 2.9320658007360607 0 0 0
222 1 0.2228414625256584 25.904695158568877 16.024216444701988 4.405038347215776 0 0 0
204 4 -0.4958860407432565 27.0870565603608 17.97402982068337 1.4171979232879488 0 0 0
206 1 0.2653741930547339 28.84667255567175 14.536283242275857 2.0636651018400025 0 0 0
207 1 0.6193369567280571 26.56475929480462 17.715813675961964 2.493748700225263 0 0 0
208 2 0.08998600123211187 29.275010250545986 17.147699854893766 1.76562479548264 0 0 0
209 4 -0.481767807840398 27.440412326437688 17.849272762201664 5.163994402651584 0 0 0
212 1 0.1726493776593909 26.53378075140216 16.632839484857808 5.457637342719464 0 0 0
213 2 0.05724776483002662 28.147618828617265 14.952793015093457 1.2977050922601583 0 0 0
216 1 -0.0002918510717481096 29.894992213995224 16.682369025032152 2.5445617174152626 0 0 0
218 1 0.1792556287116013 30.606975805798495 13.196876324297198 4.011766601063786 0 0 0
219 1 -0.03600795214051898 29.793965555338655 15.31226635847136 2.7928604938350436 0 0 0
221 1 -0.003522176134668449 30.61399312290702 14.664714832391502 3.8027223605145193 0 0 0
223 1 0.01250852912962052 30.84459032350108 17.464207995287712 3.265547390187331 0 0 0
211 2 0.01183142765044746 26.46463328602884 18.567736603917247 3.2613695473007547 0 0 0
220 2 0.05869481245759779 26.849120688167083 15.433354779563459 0.25990655171249044 0 0 0
205 2 0.05673906613753744 27.56909032368825 12.84434781346523 6.007031742674336 0 0 0
227 4 -0.4685036335812795 31.64026432903308 12.524223056526367 5.011433469370426 0 0 0
236 1 0.002121689730417036 33.31984490028883 12.604161151852292 2.4299893895760216 0 0 0
243 1 0.05733701061437622 31.490782618651075 15.400213389009611 4.541302529314973 0 0 0
246 1 0.02333447623438396 31.651831431074196 16.798717274870416 4.276318347886134 0 0 0
240 1 0.01972379949101659 34.19462562622224 12.73470187523017 3.544903405429332 0 0 0
228 1 0.2799191015456626 33.684206763561214 18.540003807773967 0.7146932838509313 0 0 0
229 1 -0.06983734861609406 36.09388593004678 12.908133763562963 5.619871126948706 0 0 0
230 1 -0.08052415914215241 35.17292656574532 16.31748730183429 3.3070829553159915 0 0 0
231 2 -0.007728573315445324 35.244533038249834 16.7398694022712 5.497623133440231 0 0 0
232 1 -0.07104569511102764 33.94440679759801 17.401706817853317 1.4349182778166485 0 0 0
233 1 0.2576334955117318 35.79891064524571 13.985329306490405 4.879554762711573 0 0 0
234 4 -0.502095740329622 36.54011842488881 15.253843874772427 5.118865810511534 0 0 0
235 1 0.05290031700627389 34.8296549169145 17.452280257039238 2.5847287519784503 0 0 0
237 1 -0.08402176195161459 34.82848169038451 13.966429172142753 3.870710042870396 0 0 0
241 1 -0.023200502982072 33.7112046503559 14.987691242655092 1.8672457169152095 0 0 0
244 1 -0.009148306058104645 33.10706157373262 13.714170709663321 1.599747277189634 0 0 0
245 1 0.05222970628127464 33.387812386281624 16.154589086522716 1.0850917422066746 0 0 0
247 1 0.04551652872424605 34.5699847918325 15.059516736996681 2.9915235563915914 0 0 0
248 1 0.4330998423146173 35.91661049748121 16.56254337573969 4.6112117206282655 0 0 0
249 1 -0.007909433243839383 32.215032766132154 13.63735226690269 0.4703867849751387 0 0 0
250 1 -0.03846667654459262 32.24039363132665 14.861883503067322 5.6688886765950315 0 0 0
251 1 0.01206801258901612 32.53366012117156 17.58570025813737 5.042629776703746 0 0 0
242 4 -0.5158067528647468 36.94229132809562 17.686074202061352 4.666801853574929 0 0 0
238 1 0.2717116864109987 32.33337736254155 13.49102349235147 5.920307259447185 0 0 0
239 2 0.1062825141961421 37.57914586232658 17.576968637332218 0.6482238975653356 0 0 0
252 1 -0.08459557099236364 35.48462264673023 18.692970799782803 2.8679328429556574 0 0 0
225 1 0.01821165980144546 33.13989672562278 17.043073882082833 6.21344214899217 0 0 0
254 1 0.01886975569810629 40.6640910979683 15.723849863597893 1.4999025664847165 0 0 0
256 1 0.03472335124543405 39.94507338973746 17.233018207824383 5.1292578202531605 0 0 0
257 1 0.01754350968880158 38.28132003088423 13.125960537121816 2.2850984084509376 0 0 0
258 1 0.03401365041197225 38.313610028131805 13.522528721859045 0.8826824101611155 0 0 0
262 1 0.2228170508223244 42.885426205574895 13.785630500025313 4.997425962668538 0 0 0
263 1 -0.03228337460962219 41.81459006138136 16.728935729553307 2.0212758398001243 0 0 0
264 1 0.03482521632620443 39.55834192743641 14.679450620094824 4.030974475501525 0 0 0
265 1 0.08489946352445858 39.712287019988565 15.589521136983135 4.948475685002126 0 0 0
266 2 0.08132158830741133 42.76491991006318 16.673281950372257 1.4247000904150389 0 0 0
270 1 0.02923887588229835 39.50643787895613 13.793909718378671 2.9888922826177695 0 0 0
271 1 -0.000794461357224102 40.236864206508116 14.30682684249116 1.86697950373935 0 0 0
274 1 0.03432358688783956 39.582164485323275 14.097296267831487 0.6111978307173824 0 0 0
276 2 0.05190001471285545 42.011321180763375 16.498729541431178 3.0554839054797913 0 0 0
278 1 -0.006109333609118538 40.617527519145625 18.012485909377094 4.27575955116284 0 0 0
272 1 0.1388513563889103 43.3728003638105 14.141030522611297 3.8587076773590785 0 0 0
268 1 0.1957434192408528 43.12978671778474 16.13933570914713 5.980836677411479 0 0 0
253 1 -0.0445977213902774 41.15977761120596 18.1383718918728 1.8459563841793036 0 0 0
1465 1 -0.09191808965069338 42.74947113852256 14.692329609566018 6.187055658115727 0 0 0
269 2 0.04629706620775291 40.07498542310176 18.049058448002473 1.6472366616406589 0 0 0
259 2 0.04093328583768693 43.39724048116183 13.586106463905324 2.8715844505647135 0 0 0
267 1 0.1622156008292452 43.58073306013772 16.54903921493801 4.854118616225177 0 0 0
273 1 0.03061579220128828 39.94991928278217 15.594723293908238 0.20404987365598662 0 0 0
260 4 -0.4738850450242374 43.889474286856405 15.591730191653703 3.7149984756976315 0 0 0
279 2 0.03932821810933073 43.88817294868076 17.56318227684846 4.614428146789919 0 0 0
255 2 0.02854098779178408 43.90964688992322 15.756055380440754 0.5632735632385002 0 0 0
261 2 0.0560575659540344 41.6414948144793 18.68943679084367 1.034986185736891 0 0 0
282 2 0.04637848017315746 23.924091137553134 24.841257547612557 0.607676179672002 0 0 0
293 1 0.005030856258436411 22.97037016721468 24.656331250059733 0.10561236265011284 0 0 0
1474 2 0.03976652153897393 25.477051700974165 23.402220234499246 4.806196558256458 0 0 0
405 2 0.04851062114575329 25.481052649534664 25.02961030996235 2.880138933648081 0 0 0
320 1 0.0205151653861348 30.99702192589533 18.810463332335814 2.9255258537305453 0 0 0
287 4 -0.4937918910114481 25.238706444813438 20.77796564836543 0.7556929692138061 0 0 0
1473 2 0.09600772968252941 26.262162259273907 22.553686513149383 3.3922501693738756 0 0 0
285 1 -0.06529072585287091 26.3058132161147 23.427281320065443 4.092167179224728 0 0 0
284 2 0.03037857926278792 27.196817777522906 23.29301133437429 4.734563207562368 0 0 0
312 2 0.1030680786662445 30.348437910537022 19.24604405074307 2.1329481037401647 0 0 0
295 2 0.08109808868742331 26.971759212285967 23.55173758039159 1.54702717288666 0 0 0
301 2 0.03450370379115653 28.42781967115593 24.007573463088644 2.577891150246214 0 0 0
310 2 -0.005108425519528191 26.937604689496126 19.784703577159515 4.316729214359158 0 0 0
304 4 -0.5219539230879121 27.74844750058749 20.914179866925885 2.8517670669180237 0 0 0
308 4 -0.523198029671024 29.01935715251424 20.464021238602207 4.882492067273385 0 0 0
309 1 0.5941641342729388 27.85342220446407 20.332657571750108 3.949241295089056 0 0 0
315 1 -0.08146434783571717 30.028427349904465 23.673966417733002 4.581330750021484 0 0 0
305 2 0.05703306579701524 27.230446481461914 21.135818509774023 0.624394103628612 0 0 0
318 2 0.05447977023983137 30.6909668190631 21.424558731711013 3.679356608140992 0 0 0
300 1 0.6225194256342504 30.6384044998713 22.24006375326693 1.687062036439457 0 0 0
303 2 -0.04393611904972715 29.995296373224196 22.417219835722573 2.612455095273519 0 0 0
317 2 0.0708851129434646 30.523759825107344 23.201301321154915 5.398048586691359 0 0 0
307 1 -0.03189717272871619 27.455022460128113 24.418726907226063 2.159611968685433 0 0 0
306 2 0.06852929185812127 29.41303150294795 22.904627355241217 4.047397854153778 0 0 0
299 4 -0.5808289736031227 30.37603120101807 22.740255523910214 0.6139445274339936 0 0 0
316 2 0.009806191554177748 30.767031648260975 24.081276013543103 3.8273832787126327 0 0 0
314 1 0.6147154288633649 26.246167344873506 20.971778599281937 0.08615062725246686 0 0 0
487 2 0.03627611118467612 30.96880811682102 24.596106790382365 1.818954742323956 0 0 0
297 2 0.06884573936169446 29.549317564687588 24.743052980216092 0.018693229075608924 0 0 0
296 2 0.01420223723948203 28.343541463994665 24.407824866868072 5.881895259468097 0 0 0
319 1 -0.03278558263551058 26.45040691881594 24.795026104363693 3.3244275648155748 0 0 0
311 1 -0.02120160047648637 29.054548686980638 24.812921303038287 5.1012776354618135 0 0 0
1493 1 0.1535014363202932 29.072175544255934 19.593745453211696 6.167526654776985 0 0 0
226 1 0.2610838316027311 36.489520956911434 18.822875329106623 3.828673012195499 0 0 0
329 4 -0.5446644707154852 31.763528776431805 21.27117816121655 1.9396267917700163 0 0 0
326 1 0.1994400790033627 31.726458911253868 21.042934764539947 3.449697173544542 0 0 0
325 1 0.01482567686883908 32.43500525247312 19.03959524736482 4.788942227425698 0 0 0
342 1 0.008566344126188634 31.787088781192434 19.62614034624166 3.7251832734574566 0 0 0
327 1 0.02057846111439377 33.23753390145233 23.146661975003365 3.7031801759266854 0 0 0
328 4 -0.5512777766847151 35.36123471581982 22.26047504522884 1.680812886862066 0 0 0
330 1 -0.02136252247552576 34.28183320110981 19.721058176091418 1.0381240152826419 0 0 0
332 1 0.000373544949359981 34.875783451156 23.506746427246327 5.3938312684487935 0 0 0
333 1 0.006427512671736961 33.458440544695904 21.371800775668902 5.159773076749765 0 0 0
334 1 -0.008581289686503821 32.82511379776611 21.85293647195627 4.096215116404649 0 0 0
335 1 0.2228674598154828 35.868156068793375 21.06033180621485 2.393380992592651 0 0 0
336 1 0.02818776379568497 34.12663657918432 23.976680309148623 4.293335979823481 0 0 0
339 1 0.007057403576307158 35.17204716434912 19.845175530930714 2.1013528644171338 0 0 0
340 1 0.2204609882242669 36.82306544244782 21.16158341630687 3.3751037023717037 0 0 0
341 2 0.02528398517357327 32.63521924262213 23.60521235241789 2.838874078006889 0 0 0
344 1 0.6524303322790509 36.32471169490443 23.435169633738813 1.6192816962708196 0 0 0
345 2 0.06461090697427883 33.11789725949413 24.102858651972422 1.3036759011786705 0 0 0
331 1 0.006042342151932474 33.249824663047335 19.96869885637941 5.552452825213325 0 0 0
12176 4 -0.5524244329103956 36.03180950515811 24.59804166535368 1.4188960847018435 0 0 1
343 1 -0.1208484638693364 37.08729290336107 20.028251322005215 4.095526779388819 0 0 0
353 4 -0.5499893727932631 37.35497851941116 22.550485926216133 3.7924380383127088 0 0 0
348 2 0.0446669066620976 37.42706378397259 23.166303092817266 1.7142477249275991 0 0 0
321 2 0.1148888454749178 34.06160691021962 20.566800320095588 0.4692096372878442 0 0 0
324 1 0.0006198686164014376 34.66177616599611 22.079861461639585 5.716996019397607 0 0 0
323 2 0.08104445903916895 34.39616554751632 25.020650266179064 3.8568583581743123 0 0 0
322 1 0.2338811482975203 35.811952900401536 24.34262759496632 6.122632816953137 0 0 0
12165 2 0.103894517601448 33.099853043660076 22.62630323606349 0.18616218037694565 0 0 1
338 1 -0.02588086925827536 32.793203462718026 24.947910798964386 0.6446647609564793 0 0 0
361 2 0.1405018728739153 37.93877600424512 19.972696862650107 4.811379637869179 0 0 0
352 4 -0.5589380492198095 38.52417567538762 19.871500312569246 0.20868863661474912 0 0 0
346 1 -0.01717477348094401 41.31969499653728 18.881149695896166 3.2770160102616392 0 0 0
347 2 0.02330216528867036 42.39304121685936 19.107228883277656 3.504891915622996 0 0 0
355 1 0.602653193999058 38.40506086154642 22.55461071742742 4.877201732361082 0 0 0
354 4 -0.5924321820850097 38.500796012331385 21.66457476789253 5.727407329831259 0 0 0
356 2 0.03404985273479414 39.01425287416476 23.570005714228646 4.9356357188272595 0 0 0
350 1 -0.04026481452039167 40.451586898831046 20.27776168322869 3.160263881762086 0 0 0
351 2 0.09567484987029501 39.77057501431502 20.213845615864358 2.3002604313997668 0 0 0
357 1 0.004368027918793568 41.88264529088933 21.769431629085013 4.534162702512647 0 0 0
358 1 -0.0249054094886674 41.50531448899591 21.42560372886457 3.0383814551316695 0 0 0
362 2 0.05821004489826768 39.845263829771326 20.42930946330992 4.10703415562735 0 0 0
360 2 0.08538482821547093 41.019204436224484 22.34048712198825 2.6597765253117926 0 0 0
359 2 0.04222804814642842 42.4214381035921 21.068267237339114 2.4925139177198146 0 0 0
12215 4 -0.5274825464855102 40.14067005991136 21.676382643228365 0.1322251366282312 0 0 1
349 1 0.02411400013354848 42.08991157269009 22.03146126616281 5.612938428959763 0 0 0
383 2 0.03180042299878238 9.546407022272493 30.01571186664883 3.167818414737941 0 0 0
1573 2 0.02881189667231391 11.566170987653042 30.02096076834708 4.704053641252138 0 0 0
1585 1 -0.02851304432828873 11.69873552692162 31.13419448345576 4.469170312003922 0 0 0
365 1 -0.04964889138691037 9.706284697489533 31.05689136115804 2.8447694960306666 0 0 0
394 2 0.07923423545093443 10.533783093964436 31.12403013480485 2.092047271296351 0 0 0
281 2 -0.004435370617403249 17.338252457018235 25.573391426717716 1.3870471491417724 0 0 0
385 3 -0.5542372844611435 16.039523937368507 29.693298349847737 1.6344101002662148 0 0 0
386 2 0.2507799056256864 16.688833923506948 28.87540544171268 1.6175584121148132 0 0 0
398 1 0.09106077241721336 15.996879165251244 30.117580162060566 3.083012243255045 0 0 0
400 2 0.20365753119157 15.036983544699698 29.78188600105014 1.368583017196754 0 0 0
402 2 0.06332991521386049 15.503986273095522 29.305775779444918 3.7309782378770286 0 0 0
380 1 -0.02162860617160091 17.41065062048131 30.416511561904787 3.688531092493477 0 0 0
391 4 -0.5382257896809116 17.424009793004448 27.09880110851758 2.701025446812323 0 0 0
381 1 0.6331521694148363 17.935094432502932 26.45688517404088 1.789803525351976 0 0 0
419 2 0.08413006303634228 17.905097104297678 29.391644486911876 3.6604610528400485 0 0 0
393 2 0.116675929217843 17.252848288726717 30.747486038098714 4.72874779466477 0 0 0
421 2 0.3367089955212117 18.645732449217796 29.278678636878784 1.6215234589247844 0 0 0
389 1 0.05132362807394546 17.002934485678715 31.010289021129292 0.8825035519004881 0 0 0
392 2 0.1006649032983118 12.635281403250945 31.268581145317018 3.778231509593168 0 0 0
388 1 0.2043059424703509 18.316069836129305 31.253074965981202 1.5794736610544693 0 0 0
1576 2 -0.01053436587573489 16.129133962918154 28.50035073256383 5.943833816180178 0 0 0
291 1 -0.001745655597086521 21.837412828149603 25.260261887225443 0.44910724475494407 0 0 0
288 2 0.03415251070214021 21.923638164726146 25.9211215735498 1.3491211495879358 0 0 0
1607 2 0.07561523608002817 20.749854344641193 25.977515229342096 3.270439376293168 0 0 0
1605 2 0.08307964088292451 21.37331980919281 26.039400445571673 5.0308594058563925 0 0 0
437 2 0.08266284775120053 20.4582836889962 27.449360418470135 4.306513379015555 0 0 0
433 4 -0.6412108942202708 19.24756966290237 29.96130844480935 1.4831941306295016 0 0 0
428 1 -0.05558859978510824 21.16414502124797 26.63233829624931 4.0910479061958505 0 0 0
430 4 -0.5514549718234147 19.322135526595137 26.630467531630586 1.2050596373609794 0 0 0
422 2 0.05560182303505747 23.203057757371845 26.37927311544128 3.4061954077757632 0 0 0
406 1 -0.03803169417973541 23.485543381320966 27.939404677096636 1.481121068591608 0 0 0
408 1 -0.02590021409153848 22.51206367786883 29.675672286466707 3.0076309878187275 0 0 0
409 1 -0.01761527705777855 22.59201332970753 27.208543793432003 3.7147408163456266 0 0 0
410 2 0.01569329389676965 23.58444535482781 26.835272238414014 1.2236850930588052 0 0 0
415 2 0.06613783261668475 21.321951447567802 28.072681532528726 2.046764298245072 0 0 0