LAMMPS data file via write_data, version 19 Nov 2024, timestep = 3863502, units = real

10582 atoms
4 atom types

0 56.144225 xlo xhi
0 156.098922 ylo yhi
0 56.144226 zlo zhi

Masses

1 12.011
2 1.008
3 14.007
4 15.999

Atoms # charge/kk

891 2 0.1158529993566462 13.89982 5.303225 6.72839 0 0 0
894 1 -0.06080941812667685 11.682458 5.776673 0.483037 0 0 0
896 1 0.01068940455266678 10.139436 5.691303 0.95989 0 0 0
898 2 0.03334757975505753 16.274913 4.810459 6.003997 0 0 0
899 2 0.02381599860347274 18.493979 4.959319 6.275576 0 0 0
803 2 0.03972315848805433 6.9358551103526995 10.139439072558051 4.3203167200773045 0 0 0
805 2 0.08500198620721032 7.155425609587515 12.62143499572049 5.158924767272799 0 0 0
804 2 0.0648851423520357 11.044320683662338 10.09393639064229 6.436389126298124 0 0 0
806 1 0.008067914658847816 10.571317 7.995698 2.082127 0 0 0
807 1 -0.003219231298453544 11.966743 8.06804 1.641011 0 0 0
808 1 -0.003620224044238461 9.928942 9.302361 2.701267 0 0 0
809 1 0.005113074702656299 8.792461 9.458773 3.369492 0 0 0
810 1 -0.01152255838573712 10.015193241698734 11.639348321704045 3.5954092361127628 0 0 0
811 1 0.001908904646631189 10.659677433769549 10.565160031650487 2.840519986123108 0 0 0
812 1 0.03561095056044723 8.730937222380206 11.53667192750714 4.22560164085841 0 0 0
813 1 -0.002431362783453865 11.995402777175611 10.488592739848338 2.319927551314934 0 0 0
814 1 0.001651552622119327 12.787886759380097 11.623676518392216 2.6996086691249896 0 0 0
815 1 0.0002252064285062794 12.652305 9.347618 1.768305 0 0 0
817 1 0.001976607080008243 7.988529047242857 10.27911512735598 4.115493544305199 0 0 0
821 1 -0.05585027809320468 13.826185 7.127501 0.363136 0 0 0
822 2 0.0222042029641526 12.885076909781828 10.339983112345932 4.864740561153419 0 0 0
823 1 0.006002958956237398 13.062782 9.929114 5.859415 0 0 0
824 1 0.002859416641693756 13.921807 9.442651 1.324969 0 0 0
825 1 0.01285107829412669 12.068962 9.833022 6.873083 0 0 0
892 2 -0.02495319976170661 10.444717 6.732803 6.999965 0 0 0
893 4 -0.578227620952712 12.409 6.843592 6.373143 0 0 0
895 1 0.004830646259094146 10.0338 6.934051 1.654673 0 0 0
897 1 0.04825635246140048 12.528018 6.987568 0.910112 0 0 0
818 1 0.01806523763776481 10.865889923718647 12.739849627408512 3.785384989287415 0 0 0
816 1 -0.05023653709006771 8.168310745549492 12.719633677105943 4.800106854946878 0 0 0
820 1 0.001164156788641008 12.199389037830457 12.776262298952322 3.325561728675339 0 0 0
826 1 -8.478122568571858e-05 14.152519343614687 11.660526780885775 2.4107893968581227 0 0 0
827 2 -0.05410513705858857 18.745919 8.070664 4.242179 0 0 0
828 1 0.02299882145808856 14.525476 8.389182 0.572966 0 0 0
829 1 0.01469723343982711 14.638406329206376 10.674680056398572 1.486809095879616 0 0 0
830 1 0.03683712821009829 14.448568 9.444521 5.982099 0 0 0
831 1 0.04826120149401997 17.551415 8.90347 6.862231 0 0 0
832 1 0.05509579382139209 18.793969844601765 10.641152473622123 0.585454703224784 0 0 0
833 4 -0.5317897325147807 19.404769 8.498805 2.343905 0 0 0
834 1 0.5969547316376996 18.580806 8.540236 3.248099 0 0 0
835 2 0.05812554501939404 14.697936 9.538858 3.833966 0 0 0
837 1 -0.04324676286938791 17.603199 9.589208 5.618068 0 0 0
838 1 -0.03885569338559367 18.73158525888872 10.35416537762687 5.301257107493872 0 0 0
839 1 -0.06079096431853316 15.265149 9.384304 4.760069 0 0 0
841 4 -0.5776192278098617 17.209666 9.216565 3.150974 0 0 0
842 1 0.01168793739353943 16.801446508090738 11.8804140143969 1.3964766662268497 0 0 0
843 1 0.03913687927733051 15.991359279630158 10.74203182037474 1.0449107009914322 0 0 0
844 1 0.004792729588088305 18.191720263278707 11.812148877621473 1.185989515095443 0 0 0
845 4 -0.5095423321638926 19.68526329833962 11.761792798852635 3.619747746120874 0 0 0
847 2 0.01204479871572401 17.67134832657256 11.391693224285305 3.60841310744663 0 0 0
848 1 0.3435950765637756 18.66898674589746 11.161429036204188 4.062025237222731 0 0 0
849 1 0.2389497405661007 16.642789 9.310528 4.534957 0 0 0
850 1 0.01647294495825463 16.56155 9.6356 0.31201 0 0 0
851 1 0.01683711062127195 20.008213023132598 10.536133798496067 5.896288064516193 0 0 0
852 1 -0.01278732877556701 20.16732096303033 10.622514313981743 0.2618113452038405 0 0 0
853 1 0.005810943162359593 20.38863963565469 12.691715205444142 1.4208558963995306 0 0 0
856 1 0.000824026231911602 15.804241 8.510159 0.029948 0 0 0
857 1 0.04894365514648327 17.9925 9.525229 0.172491 0 0 0
855 2 0.06642882352824275 20.733694024445597 11.20953848526332 5.408875842018755 0 0 0
840 1 0.04503238375679836 19.016127783675042 12.846061183049535 1.5686773753917729 0 0 0
846 1 0.02701582539079705 16.263725327623487 12.96972033038685 2.0707703613908386 0 0 0
854 1 0.2681491999203829 21.002497066713833 11.608660719866322 0.7960144843585577 0 0 0
836 1 0.02820907621882645 14.90043950587123 12.869495282340658 2.532225538820392 0 0 0
859 1 -0.08144826832992685 26.542546342277245 10.012865530930807 6.74481706068296 0 0 0
860 1 0.01532860334483091 26.589405112196385 11.429918969075516 6.764310668119931 0 0 0
861 2 -0.003674180775407574 22.085397 9.741236 2.009154 0 0 0
862 4 -0.4533761350334919 23.878995 9.566181 1.039872 0 0 0
863 1 -0.02514951155032517 26.85295668263894 12.191374702982035 5.618753357992299 0 0 0
864 2 0.04592432765627382 26.990309131395616 11.765708467628537 4.6130165885201615 0 0 0
865 2 0.07719108048470397 26.783891 9.615396 5.791443 0 0 0
866 1 0.5902367966441141 22.846878303590774 10.144342450341687 1.3143904868911243 0 0 0
867 4 -0.5212247890595628 22.486295969783836 11.504238859060413 0.7348058975099462 0 0 0
874 1 0.00624931057013291 30.953038608955143 12.048738011834352 5.8856744880346925 0 0 0
876 1 0.01667646971194324 32.670959 9.466118 5.381836 0 0 0
878 4 -0.4230956366562608 34.299893 9.518193 3.279128 0 0 0
879 1 0.01841925956771844 32.048841 9.091586 6.636784 0 0 0
880 1 -0.02843559920863558 32.61192977287165 10.563696821445193 4.658341909652353 0 0 0
881 2 0.03361725360324518 33.92603369245835 11.534782760489437 3.033068491613514 0 0 0
882 2 0.08853709568239219 33.468535 8.761182 5.041372 0 0 0
884 1 0.3248758862669501 33.656951818664126 10.562576126176141 3.5199230251820652 0 0 0
888 2 0.03735643910121804 33.291079 7.330899 6.653969 0 0 0
889 1 0.02469959060201776 31.76363882156119 11.6891574435269 4.827340325849798 0 0 0
887 1 -0.001585173639033738 30.389710231025493 11.1697423122056 6.816588140729378 0 0 0
886 2 0.06848853678476233 32.458467150788486 12.55255634482722 2.8662291630012517 0 0 0
885 1 -0.01405669937643749 31.942912944914877 12.758541281528425 3.8241643246766928 0 0 0
877 4 -0.5508106654299776 34.29649609848033 12.99375254563341 6.125300820268648 0 0 0
651 1 -0.0008173432332950139 12.978464886871159 13.917878257136119 3.687883627995546 0 0 0
652 1 -0.04477752323681203 10.243794354450872 13.89348034933105 4.435415503506498 0 0 0
653 1 0.04228353004461614 10.994530753123982 15.077585282068027 4.448316332817288 0 0 0
654 4 -0.482051349577702 8.262411067892277 15.091887820786805 5.5327805204980285 0 0 0
656 1 0.001710797340955826 12.349094798876774 15.13329483070299 4.122903785083913 0 0 0
657 1 -0.05868588355328461 13.121124103488961 16.307144956110676 4.26320928894232 0 0 0
658 1 -0.04964163447247437 11.266316710460435 17.528001997681915 5.127588147073399 0 0 0
659 2 0.01348434391915199 8.719305912893127 17.11117732575348 6.008846460595963 0 0 0
660 1 -0.0607353861079793 10.434798549609727 16.296839339579837 5.109214864924711 0 0 0
661 4 -0.4866084525925655 13.328207097416911 18.80156915766868 4.799586512575132 0 0 0
662 1 0.2506497203636755 9.176413112735613 16.26687381781744 5.54178858397897 0 0 0
663 1 0.2582194711901987 12.534774964504855 17.49023055855122 4.756692635709677 0 0 0
664 2 0.06281431440737607 10.713797108699344 18.43588974506229 5.490268420059161 0 0 0
819 1 0.2785368528181949 8.903375893858573 13.868068880185309 4.927536574317331 0 0 0
655 2 0.342593717384952 13.046420608934135 15.710195144546887 1.1307243325743872 0 0 0
10386 4 -0.6892385539529794 13.167184728269849 16.283838094622944 0.4254566287772395 0 0 1
673 2 0.01120793339349001 14.451517548639732 16.01886773554313 6.455712894502774 0 0 0
666 1 0.003259699089482151 14.330351834618751 13.913991232434672 3.2654697579931415 0 0 0
665 1 0.009854447232133303 18.436936903058047 13.918300783153951 2.2642930963374575 0 0 0
667 1 -0.005893542827380681 17.095172776784466 14.042875380260826 2.536783540951106 0 0 0
670 1 0.04483635915381107 14.505699876667427 16.28960368788441 3.920391966045926 0 0 0
672 1 0.2668540600214255 14.77968425644289 18.67163151222942 4.523676606942918 0 0 0
674 1 -0.01220137857699228 17.529151145949953 18.48311331793144 4.312766380781598 0 0 0
675 2 0.01490660091095863 18.41798044333282 16.525331109320753 6.200669943495542 0 0 0
676 1 -0.06707900551011854 15.327240448853248 17.450088995818618 4.13136524056491 0 0 0
678 1 0.009181674076024514 16.707258946849187 17.394350968050627 3.9467111848922696 0 0 0
680 1 -0.03967038953557538 19.546582052300472 19.00675672247237 5.566522566553667 0 0 0
681 1 -0.002066492613303113 19.549952324089773 17.217027611414796 3.634539232787865 0 0 0
683 1 0.005922065696093603 16.502516972621116 15.126417544102882 3.098818416483285 0 0 0
684 1 0.01660335979528718 20.703045101480615 14.858665763899223 2.456913586602103 0 0 0
686 1 -0.006415026203589042 15.130110211977835 15.123435111589497 3.4319127388139457 0 0 0
687 1 -0.01092871041644879 18.703041983491097 16.148663070278417 3.1461827294408016 0 0 0
692 1 0.001765196901135294 19.256322850860474 14.984057494018115 2.590910531766204 0 0 0
693 1 -0.01157527648486259 17.30282290166038 16.281637553215912 3.3548485015860554 0 0 0
698 1 0.03700099137209082 18.977130715597568 18.299147813029926 4.418045527699054 0 0 0
689 1 0.003517802414866792 19.932090009953058 18.122396134413403 0.2687465080825405 0 0 0
668 2 0.0227878547308291 15.673055380025424 18.0288137745294 6.803717722348885 0 0 0
691 2 0.03924050843281063 18.449562251927354 18.651516929387782 1.7194511839014812 0 0 0
688 1 -0.00495548598240326 19.30950465339701 19.052076198200304 1.2086110996433106 0 0 0
700 2 0.04441514582843684 17.046089998170462 15.71315598848138 0.6857324715041561 0 0 0
702 2 0.08803323128100303 16.244455736194993 18.019306511993275 0.5279829469666356 0 0 0
685 1 -0.003281790841802861 20.98949670059857 17.051577451443972 3.488034504885075 0 0 0
1825 1 0.002906477762042171 19.213214056335485 18.403487244530556 6.847837129996147 0 0 0
1829 1 -0.03167572047938018 18.46672185787005 17.184112171986786 7.028657650675169 0 0 0
869 2 0.03873552765894975 21.554532068889632 13.27185951151933 5.420991958441326 0 0 0
858 1 0.03725267865153815 21.292983582441764 13.690036539408977 1.9185523816484138 0 0 0
704 1 0.01115031050212124 24.246023951534518 18.502010848350825 5.313371250981686 0 0 0
705 1 -0.007910533357876394 21.604590848387918 15.916523452318696 2.9897273840374785 0 0 0
708 2 0.03029560735035128 24.511617166922665 16.743061991308306 3.9604221399139483 0 0 0
715 1 -0.0246588195498101 27.290142791888773 17.75035251796786 5.777465921178757 0 0 0
718 1 -0.0235649814485323 24.079021136305577 17.166836009870828 4.866346053914318 0 0 0
720 1 -0.02354436495281231 22.818057413548004 15.019791888415085 5.05898176379626 0 0 0
722 1 0.2566373902986653 24.173523195093157 16.757576243459507 0.8645818287911573 0 0 0
723 1 0.006158303702712076 23.28286702580513 16.27304031184979 5.62772096028447 0 0 0
724 2 0.05256687061786318 21.603443066708895 17.81066053054259 4.03945024800619 0 0 0
727 1 -0.001105616829237974 27.14279597156617 14.287037412917474 4.432481012405921 0 0 0
728 2 0.04619207165220129 22.752453504400965 15.834519630876141 2.9317547565624236 0 0 0
729 1 -0.06050606002301854 23.631550955149205 18.06471165516949 0.8599344116458335 0 0 0
731 2 0.02449891676403704 25.5716294126258 17.320049317864278 2.415016234391798 0 0 0
733 1 0.007396339808384442 26.617077925017757 16.14197152602269 0.9749308088645577 0 0 0
737 2 0.05214534806773429 23.341193861195737 14.61383124823134 4.15547486462897 0 0 0
738 1 0.005335757086931622 27.113294536204762 16.384166294148294 5.804861097304825 0 0 0
745 1 -0.04285210981601828 25.406533015727398 16.6770621008734 1.5793176457756466 0 0 0
868 1 0.007121175934659153 26.771778340628757 13.55735881692904 5.655797483329674 0 0 0
871 1 -0.01792392509146724 21.929074344132346 14.246523038029853 5.736896332817761 0 0 0
872 2 0.08505637301310776 22.376884088058237 13.6595836535119 1.8044795705344947 0 0 0
743 4 -0.516348905813153 24.662385876150545 13.945906275291241 1.5642867851547888 0 0 0
744 1 0.02266618237059751 22.378330081362616 18.74379997739587 0.4726239845736624 0 0 0
706 1 -0.005307759420166542 27.201327437840707 18.582557601020863 1.2016812882468102 0 0 0
721 1 -0.01764038222277789 27.281401958707313 15.625175134211844 4.559746624993802 0 0 0
710 1 -0.007562431607989683 24.559611808638362 19.042756217075905 1.2614375369405926 0 0 0
739 1 0.001271826046035514 23.63009708398883 18.97073026643109 6.589771427240163 0 0 0
870 2 0.04228953824045176 27.543069007324956 13.750272812869587 3.5363668095230407 0 0 0
725 1 0.5739637156075545 23.94138354582235 14.218298234396531 0.5933546020152362 0 0 0
719 1 -0.004519974410876391 26.622786180254284 14.285366046609418 6.902903349258705 0 0 0
741 2 0.02294768592575308 25.400846902306952 19.046754692067232 3.7133656933560295 0 0 0
714 1 -0.001439924282454026 26.642011103639 15.651868055806931 6.928854234512335 0 0 0
1856 1 -0.0005305015498046615 22.713786993268958 16.669881877526183 6.921372506811028 0 0 0
1834 1 -0.006143439055976967 21.32404060565021 14.563726651250237 6.979511841396471 0 0 0
730 2 0.02270346801089876 27.639674276744042 16.23637660167399 3.7556635145198727 0 0 0
716 2 0.01460397837306929 27.622469892368503 18.29200045022263 4.882510933265819 0 0 0
732 1 -0.01590335424603156 27.560361105416572 17.182071969773222 0.984534919969659 0 0 0
712 2 0.05662332042056738 26.736480592340868 15.156941152092998 0.47854071539020143 0 0 0
734 1 -0.009256121298717107 26.00257504743992 19.336573562908164 1.3089308665565378 0 0 0
707 1 0.006022678595574565 27.057779066773445 18.39603608776212 7.004877797480875 0 0 0
726 4 -0.5751376908406409 23.39368639530019 15.601008378406176 0.25035077475666245 0 0 0
717 1 -0.006144058877971286 24.946412238826948 19.489037514610065 4.609237282902716 0 0 0
711 1 -0.06717359696845905 21.260520838628846 17.98535847052535 56.11834567869525 0 0 -1
749 1 -0.01565937994667633 31.012642083495592 18.407597412091963 6.248221306132057 0 0 0
751 1 -0.0740397162652395 34.125435992696474 15.48016058804754 6.486395099265185 0 0 0
752 1 0.02696861346585857 34.191487411116285 16.807564788122978 6.01245092840648 0 0 0
753 1 0.2816390080036746 34.31499169438079 14.430554305195116 5.617923409691954 0 0 0
754 1 -0.006478191731143081 31.062681491371478 14.494624822997945 5.305575000597702 0 0 0
755 2 0.05630783369800602 31.795635760074614 14.763428380806015 3.1542152535359453 0 0 0
756 1 -0.01854242281362773 31.05125238075701 17.14798915206292 5.56847808451987 0 0 0
764 2 0.02185779187323132 31.26666536343222 17.292034813267236 4.484320612001461 0 0 0
770 1 -0.01185938896145602 31.576836561454556 14.071849851371644 3.9748800513191855 0 0 0
771 2 0.02461110078382297 31.384094336245102 19.241731920627434 5.596518153797825 0 0 0
774 1 -0.003547060906701613 30.72874976432354 15.791274710340991 5.980501205902999 0 0 0
883 1 0.005339730077334768 30.72456497242164 13.406878712293148 6.15828972096507 0 0 0
775 1 0.01394066726894708 34.08488341353011 17.90684639106336 6.855485392409917 0 0 0
748 1 -0.06829020057031901 34.15532498363403 19.25046296212877 6.34134125237354 0 0 0
767 4 -0.5869764063158738 33.67440892332146 14.232456242725398 1.5980326044769881 0 0 0
758 1 -0.04381518439038307 34.55446407760536 17.06142612787591 4.71186948413911 0 0 0
747 1 -0.02971478968459449 34.83825945933064 18.34603608879779 4.290257875829496 0 0 0
746 1 -0.1292775785046553 34.457792025760305 14.679055580370267 4.288525061683148 0 0 0
776 1 0.3188005225639452 34.541327259506645 15.986098183624634 3.814928671321322 0 0 0
777 1 0.6197362954708503 34.20192123860823 15.303609589986015 1.362458698341551 0 0 0
762 2 0.1106289047905025 35.24690511208595 18.441803262017732 3.250839086046437 0 0 0
766 1 -0.0006300547761294475 29.40655572602637 18.579418699727132 0.8295812102803841 0 0 0
765 1 -0.002165824552238656 28.989469625770475 17.204932284918893 0.6041988975295866 0 0 0
875 2 0.1432082836310654 34.45374846233301 13.793686472690228 3.622337282775675 0 0 0
778 4 -0.5793905961492494 34.71866942624013 16.314274842121115 2.3977129905324026 0 0 0
750 1 -0.002405845504306321 30.64121404933056 19.057394765957326 0.2814770632981934 0 0 0
773 1 -0.003842103984486347 28.338974237062192 19.388894799524035 1.1743208941281151 0 0 0
779 2 -0.02875645855972659 34.35375934832253 15.766649134808251 0.3163723430120138 0 0 0
757 1 0.2299203596286658 34.62620723399479 19.41621856024082 5.059711466465966 0 0 0
760 1 -0.01691608588481318 29.95078763027107 16.220295892095375 0.2688778667663207 0 0 0
761 2 0.02866217167414352 29.742558916061377 15.124153799242032 0.16460723565530386 0 0 0
781 1 -0.06664055333115004 37.414335155041414 18.998122234934165 6.594444474283218 0 0 0
782 2 0.08041850597764694 37.612284039766124 18.615253656678124 5.600330319925034 0 0 0
784 4 -0.5191190650018053 41.23372370634988 15.776168315588691 1.7531555358440831 0 0 0
10459 2 0.07890221097677391 39.91577946340512 17.923923358577166 1.2540374350995842 0 0 1
10502 1 0.5758356733706637 41.606303808105565 15.552421590794657 0.5855188784123153 0 0 1
10471 1 -0.01133225053861952 40.47933649588333 18.537301486658716 0.5595230560262922 0 0 1
10570 2 0.3529216364129707 42.49118996564975 13.847403879458767 0.9950223079283936 0 0 1
10513 4 -0.701025446343447 42.3581856169559 14.259859580617468 0.1744609087297956 0 0 1
793 2 0.03220571868302954 45.18915485797854 17.496073533905832 6.44511682922019 0 0 0
791 1 -0.007257794092591626 44.38372497878216 18.23263569068377 6.613605906927206 0 0 0
794 2 0.06717938130071126 43.709326882229405 18.498825415022775 2.0150315543177677 0 0 0
10507 1 0.02641187768157696 44.22194627844017 18.51130503352737 1.0570484553526656 0 0 1
795 2 0.04691050289240256 48.111584666306925 19.013315386918055 5.70743711321223 0 0 0
787 2 0.08240033021762536 47.647644382923474 18.912869098523537 1.4183730514808348 0 0 0
10491 2 0.04768759665843015 44.08945865378603 16.412856970974932 1.155814761035488 0 0 1
10516 1 -0.002032377925024872 44.4904368692445 17.298994988478995 0.5611268642097144 0 0 1
789 4 -0.5034700894180513 46.624202714982545 19.393557086840882 3.4135038395186674 0 0 0
790 1 -0.01115976331561527 44.333132849881295 19.450495853206498 5.834541000374391 0 0 0
788 2 0.07376618200945984 44.93168573849912 19.50805767631659 4.95586869555938 0 0 0
797 2 0.006396477174775405 48.218762593513034 17.397274865923055 6.354009287602818 0 0 0
1611 2 0.0324389598261078 13.208427070951466 25.327497871598116 6.511354147362954 0 0 0
669 2 0.00606046741510707 14.013976360777148 18.910426989744387 1.4140491994395832 0 0 0
500 2 0.07593478147437067 14.675264210913479 24.84355423239584 1.9417602650455554 0 0 0
504 1 -0.005999414284081463 14.527700663003648 25.076471984604105 0.8436359885534972 0 0 0
699 1 0.005996340760078001 16.936767921211967 19.700090646722874 4.659938214356052 0 0 0
671 1 0.5868402024296746 14.339718367205606 19.67743636393252 0.6703062229810264 0 0 0
695 4 -0.5984757357734729 15.864273968760367 19.9706791442155 0.5915558378881264 0 0 0
677 1 -0.04966948039206391 15.603954846054245 19.771029192068593 4.7411427246565045 0 0 0
10392 1 0.03955722102527597 19.478075777263996 20.47783951950573 1.2374659512358772 0 0 1
502 2 0.06273660296458045 15.356023976520563 22.435593390885963 1.157720078498292 0 0 0
696 1 0.2539103747579967 20.428075177238313 20.16338164201238 5.415469564463618 0 0 0
499 1 -0.006053920386263674 19.847129078752438 24.00640967944947 5.210653299260326 0 0 0
501 2 0.07269260926561524 19.605895687700922 23.16977506752009 5.876474403100059 0 0 0
503 2 -0.05899906254516769 15.10755074039043 23.48979786945012 5.941118899797266 0 0 0
505 4 -0.55879009073319 17.26329737996259 22.951541050587057 6.018774841549955 0 0 0
508 1 0.5981958453532805 15.819885606600028 22.82283165452078 6.51318574322959 0 0 0
511 1 0.01299682802848517 18.766124555880715 24.49810001794609 4.4548885180832745 0 0 0
513 1 0.1760470145069337 17.390258672431322 23.89260263913515 4.798762577846234 0 0 0
516 1 0.1728325358630248 16.28836507364753 24.375483419665315 4.151875683669787 0 0 0
517 2 0.01244294690812722 15.246819690015103 24.118856771391563 4.49267195547996 0 0 0
697 2 0.07030496926234657 17.573923624654523 20.546527825019208 4.929435190043727 0 0 0
701 2 0.08786034961915527 15.131275273512099 20.74937960315806 4.972223467309118 0 0 0
515 1 -0.05472498084080731 19.009747526284354 25.446479095862262 3.3788056460395666 0 0 0
694 1 -0.08994146574787892 20.649192236461083 20.938160498691158 6.488482957151448 0 0 0
10416 2 0.05925505379048057 18.73981397167562 21.065744464731534 1.8629724536731536 0 0 1
518 4 -0.5108121669088403 16.431102249971072 25.48248974960149 3.1464752202320807 0 0 0
10221 1 -0.02775312540498307 20.295844390532096 21.134151199897698 0.2163727226428125 0 0 1
10190 1 0.0352191815180542 15.506221144732484 22.86737238776417 0.11934098161315355 0 0 1
514 2 -0.05098682555203959 19.14921780394726 25.190723232447514 0.3274845694878712 0 0 0
690 4 -0.5542362560982589 20.894789932753355 20.470616246209854 4.013663327692036 0 0 0
523 1 0.01116878205331152 20.31559035982902 26.037949023090942 3.2585485708235384 0 0 0
527 2 0.03030255004693895 21.18265405504205 21.884676061963265 6.341292657268316 0 0 0
522 1 0.005702481959593399 21.18189247735062 24.473697789066165 5.006936887803797 0 0 0
740 1 0.01733049319758113 22.60999758790817 20.084835716443944 0.7098824506788805 0 0 0
524 1 0.0006888423497523265 21.380212103324112 25.523438801328073 4.002373539310779 0 0 0
529 2 -0.06183145658624671 22.374084273078125 21.72684675463738 5.170340744466667 0 0 0
563 1 0.6033876818602179 22.022302452844652 21.46760691300292 4.168844328238774 0 0 0
735 1 0.04402999699111951 23.90045981091461 20.25242801851116 1.1896014789786438 0 0 0
532 4 -0.5469600472138237 22.80647421884217 21.796329870257008 3.271703622013528 0 0 0
531 2 0.03169608049580697 25.63254181072917 21.399624874588824 4.354271881622619 0 0 0
537 1 0.005417931764958054 23.769158143210472 25.292672633245623 4.074148035220648 0 0 0
538 1 0.01533146612839129 26.191029222786 25.029778254041037 4.157991257415086 0 0 0
540 1 0.021626718985983 24.641896805667045 22.555407310680067 0.8478481996105862 0 0 0
545 2 0.01349823025940305 27.13278488822064 22.2610043696672 5.988266560347644 0 0 0
547 1 -0.002051687171707681 27.22225433717782 23.115087915544418 5.31583636525133 0 0 0
548 1 -0.007910176390330578 22.346013171074716 23.988877446901974 5.620231536790097 0 0 0
550 1 0.02951552382967033 24.834961630306402 21.27219876762569 1.32049947078455 0 0 0
551 1 0.01274852570392203 26.04240410865545 23.90224023041094 4.996456559150596 0 0 0
558 1 0.01051899177443328 24.755495707539303 23.637033451392092 5.572890827314281 0 0 0
559 1 0.002691820399317526 27.486758982113628 25.272444626583052 3.532760150932275 0 0 0
561 1 0.01899674203634013 23.621673286811163 24.397227514392508 5.1676160868521865 0 0 0
703 1 0.0009635841778188767 24.477358106531774 21.244431832761844 6.256067389188722 0 0 0
736 1 -0.005190458390380145 26.122734884207357 20.753740216619494 1.4194466608575638 0 0 0
742 1 0.01069551884700747 24.999737961727018 20.78933057272407 5.003980135679576 0 0 0
552 1 -0.002305968640533032 27.03971085898138 22.9663387172006 0.8966263800694969 0 0 0
562 1 -0.004227729200049378 27.25471534944305 21.598173563320497 1.2465831849360192 0 0 0
554 2 0.03035358120340256 22.198292935964947 23.24655674514471 6.3536355163133384 0 0 0
560 1 -0.005435308132186237 25.04603882634651 25.759099109594978 3.651175188249215 0 0 0
546 1 -0.003846436434435746 24.611869600257208 22.597449395291147 6.6087364165990525 0 0 0
713 2 0.01375303423367175 27.661709962888875 20.16358178791862 6.0774606537999585 0 0 0
556 1 -0.01000352759165251 25.70841114661767 23.340486900482816 0.5847701325096093 0 0 0
535 1 0.008087760481213057 23.454666522828358 23.099948221406606 0.2931584198458456 0 0 0
544 1 0.03640355146167129 21.716696003519697 21.26768649070324 0.36927400967200263 0 0 0
541 1 0.0107184551918441 22.129260802119205 22.604478137544913 0.08320691390453724 0 0 0
573 1 -0.01133705325800745 27.949885049736157 23.762372787939505 0.24149654954956631 0 0 0
528 2 -0.01230506096679001 22.103462357221314 25.757757573028538 0.3105992669346538 0 0 0
534 1 -9.424617947674035e-05 22.670802780419592 25.962608604398497 3.5273360514601526 0 0 0
594 1 -0.01284093846584955 28.433064431040762 23.289564743820105 4.741600963393805 0 0 0
579 1 0.02417959084941269 28.540033785068026 24.34908215353713 3.7531932593571717 0 0 0
586 1 -0.00728177959199053 28.43747526598409 20.81619599124059 1.1162988526258135 0 0 0
569 1 -0.06748958500620754 34.257179999082574 21.74222082713289 6.675112168307114 0 0 0
574 1 0.2729130633055744 34.67236122311603 21.96474125194169 5.396727621602003 0 0 0
575 2 -0.013090807920592 32.25429888452403 24.544174916139582 3.5371247708718667 0 0 0
576 2 0.06225299005045567 30.592158878964533 23.742521227862433 3.248375767173281 0 0 0
582 1 -0.06231786523276683 29.78074084573459 24.430184052717077 3.026320677531985 0 0 0
583 2 0.02956437430870109 29.285603104166142 22.561063558913993 4.921474615096152 0 0 0
769 4 -0.4958775596806871 34.944630023778444 20.87336606741989 4.519979591753764 0 0 0
566 1 0.6283225747885453 32.87274938820527 25.40454021900771 3.8141050022919507 0 0 0
590 1 0.2568674506597065 29.98391160443243 25.49252323981663 2.1429359986866037 0 0 0
588 4 -0.5024241735643373 31.2826174545292 25.672723448526686 1.3640814575994695 0 0 0
589 2 0.06252654534171359 33.9482885883406 25.509657413586222 6.1578850528865186 0 0 0
577 2 0.02571498078309544 34.813975151521106 22.992549099582263 5.014356310803428 0 0 0
564 1 -0.005448576573627202 29.69286527031396 21.229139065602286 0.7083679226270727 0 0 0
565 1 0.005706590777986861 30.106281096350425 22.505099641501154 0.37242795944623625 0 0 0
585 2 -0.002289837410573089 29.192478304467045 24.24310653544227 7.000154754377964 0 0 0
763 1 0.004453057881939788 30.796295455620953 20.461400425506955 0.2428494100682228 0 0 0
570 1 -0.001900302794197202 29.30396314666808 23.542606129752805 0.11909052960437688 0 0 0
567 4 -0.5255486391232563 34.02654436382394 25.463832091735252 3.4033327013270647 0 0 0
592 2 0.03253453802756829 34.00685829252331 23.93473196294598 7.089862496330018 0 0 0
10464 1 -0.007466354945472807 40.571895382333835 19.89149040737583 0.7828746279038717 0 0 1
783 2 0.04525346601166955 40.12948471698332 20.316670673033258 1.6752371839599225 0 0 0
785 2 0.04936465046041975 37.60196671492462 20.942473647289777 5.980320093227188 0 0 0
602 2 0.02954869075342012 39.65399534305536 24.621682909333227 1.6573993603084194 0 0 0
780 1 -0.004711818841318078 37.54699967051699 20.355545123654828 6.860138717379858 0 0 0
628 2 0.06267350875376546 41.44700480252658 24.716177990984303 2.5597813729501064 0 0 0
601 1 -0.01197498752274525 41.23050364601172 25.71787600608723 3.058499685105923 0 0 0
10315 2 0.04375858122191552 40.45160539697446 22.670173184645577 0.8661297372456226 0 0 1
596 2 0.05395532392091031 37.6591474941005 24.942299529188713 0.6423558030274296 0 0 0
600 1 -0.010677867162683 39.092801265855044 25.566369400848917 1.9524723335812466 0 0 0
598 1 0.01614958953831084 37.87884845134055 25.82065353638739 1.3691568068149094 0 0 0
10324 1 -0.001051309437804354 40.99459435311202 22.172386179339963 0.06107011710749194 0 0 1
786 2 -0.03256223739764071 42.07405382604569 20.335336490435523 3.7698030268036242 0 0 0
10505 1 -0.04838912494827821 44.63153452195751 19.795209635391736 0.4993550556700231 0 0 1
615 4 -0.5722528226638786 41.89153267689474 22.413732176212637 3.704542225443737 0 0 0
798 1 0.629499062743076 42.40264866754498 21.365106501823362 3.363853759017081 0 0 0
796 1 -0.0246054710971504 47.73510602026715 19.822083635074726 6.4105275538800015 0 0 0
630 2 0.03274386742392707 43.18348687952435 25.545318809031382 3.7655614691089503 0 0 0
10486 1 -0.02067232478411062 48.13721811849426 19.78855327965919 0.9146875856875122 0 0 1
792 4 -0.6000452390592679 43.38433992545957 21.109773661330852 2.2154843027039504 0 0 0
629 2 0.06241660540327321 43.86515982073906 23.71611109598675 1.9347102529744298 0 0 0
801 1 0.3402934763991924 46.56936771527499 20.624534833449303 3.5216946875545054 0 0 0
644 2 -0.02385883624357153 46.122340850166644 21.06251945686443 4.515530812403345 0 0 0
800 1 0.3028910310175529 44.275379981857434 21.0574997241406 1.0485382160092127 0 0 0
619 1 0.03497670412564915 47.92280612485268 21.15359905598712 1.3880427172837624 0 0 0
622 1 -0.01413553435256883 46.336285363544484 23.429987995901275 4.046768656319145 0 0 0
633 1 0.0004541070388859917 47.6046912444408 23.97207433372036 1.9755918722575283 0 0 0
636 1 -0.06442632882392374 47.23303016242957 21.606135325639 2.539197094762622 0 0 0
638 1 0.01604338996924043 46.93417217199685 22.96506654491652 2.8253084228560588 0 0 0
639 2 0.0172610644197705 45.87953582043667 22.695627139032005 4.73303146369916 0 0 0
802 2 0.02792645285347283 44.54950199461503 21.56393040156582 5.541568242574147 0 0 0
631 1 0.01408580382854246 44.41411749920434 23.56689397916054 1.0292848864280038 0 0 0
617 1 0.001825118042337356 48.36160273895142 23.59017814853569 0.818343575148165 0 0 0
799 1 -0.01445815129769022 43.96089525654382 20.81646636748999 6.145888078751179 0 0 0
643 2 0.01978367639182685 44.63462139885547 23.245749053207422 6.161218806204527 0 0 0
608 1 0.006677344534778835 48.048062866901596 21.12375908755194 6.222708564017184 0 0 0