LAMMPS data file via write_data, version 19 Nov 2024, timestep = 3863569, units = real

11909 atoms
4 atom types

0 155.996034 xlo xhi
0 56.069814 ylo yhi
0 56.069815 zlo zhi

Masses

1 12.011
2 1.008
3 14.007
4 15.999

Atoms # charge/kk

5 2 0.02064965394352754 18.60207697629734 2.8740785679022016 5.453136774865739 0 0 0
4 2 0.02669968639491947 16.30432134025565 1.8376938087310766 5.651680285602442 0 0 0
3 1 0.1944663497784777 16.56136787414005 2.074134232735078 6.730314652691478 0 0 0
838 2 0.02230927934932762 18.258444767484416 6.810870780021246 6.728674038241273 0 0 0
6 1 -0.03362249177056859 19.282794375906214 2.1292933109837238 5.910213546765658 0 0 0
2 2 0.0189234407981754 16.883624539199722 3.1690614117532983 6.6347820803542765 0 0 0
7 1 0.01440205502184073 20.58028530103735 2.017875885800692 5.914368913284198 0 0 0
9 1 -0.06511921302407309 21.744651358239537 1.5208503220161267 6.318101838209371 0 0 0
10 2 0.06965270843505203 22.731847572123314 1.8568048626899563 5.966331652128528 0 0 0
13 2 0.2814546866648142 6.138292 10.626291 1.716938 0 0 0
14 4 -0.5706874180415317 6.78474 11.138856 1.159179 0 0 0
15 2 0.05087858459889377 6.970675 11.121486 3.825519 0 0 0
16 2 0.005491182050644817 7.556115 7.839832 1.186796 0 0 0
17 1 -0.05103714643169527 9.465535 8.653985 0.39561 0 0 0
20 1 0.3412471968722785 7.985024 8.175537 0.209417 0 0 0
21 1 0.005773536688937439 12.671169079685011 12.838432473820145 3.5232011140156545 0 0 0
22 1 0.2526271172491563 8.000503 11.377174 2.016608 0 0 0
23 1 0.006101336956827381 12.66220257814381 12.901919627283498 2.1072657545387603 0 0 0
27 1 -0.01652093860135941 9.865819 8.893112 1.672481 0 0 0
28 2 0.09066953414048019 9.094427 8.600446 2.451453 0 0 0
29 1 -0.02908124775456249 9.178409 11.817341 1.299579 0 0 0
30 1 0.3336593918742133 10.829934831094242 8.633964925019965 4.484422906557618 0 0 0
31 1 0.04091953408275401 11.234271410433523 9.094425164125855 2.050184169561119 0 0 0
33 2 0.005666448428469989 11.305881682072695 8.519489441179735 5.544325713656191 0 0 0
34 1 -0.07323308051026908 11.685013889118132 9.046348712003384 3.334541777620228 0 0 0
35 1 0.04161016321679968 12.64201617785185 12.482075608282656 6.262532330758209 0 0 0
36 1 0.003906687544727835 10.34464207316398 12.18498542812488 2.075478496872414 0 0 0
38 1 -0.07579780728361867 7.917134 11.423202 3.37492 0 0 0
39 2 0.04590702386802416 8.120878 11.231117 6.023537 0 0 0
40 1 -0.007594037047960654 12.094079674033217 9.511529748559635 0.9944655988242012 0 0 0
41 1 0.0006768568275731758 9.076295 11.524383 5.548153 0 0 0
42 1 0.03374465206460645 9.135667 11.703626 4.160932 0 0 0
43 1 0.01058690893220585 11.494433809346292 12.141519919234096 5.537972916183527 0 0 0
44 1 -0.001815745379496234 10.364633800152182 12.063242188445543 3.467805234138529 0 0 0
45 4 -0.4933462710067468 9.598528 8.570893 4.401822 0 0 0
46 1 0.04283060948334043 10.240880474875008 11.842852730086266 6.2500610842894115 0 0 0
47 1 0.005759503937793438 11.561725349235624 12.26816281397967 4.177776580926796 0 0 0
48 1 0.001811284655309359 11.504277911180079 12.518788123035774 1.3862752279787387 0 0 0
24 2 0.08728363558040297 12.870859023611304 9.110785406478788 5.71731829119442 0 0 0
32 1 0.01162286975639423 13.002983004691156 9.41472276792957 3.6188193886550204 0 0 0
18 1 -0.006627161421314526 13.848858559496659 13.140402408235209 4.213844508410737 0 0 0
19 1 -0.005929998556074505 13.830284979062316 12.953786886973061 5.631570291392562 0 0 0
25 1 -0.0003741260353214481 13.399359137212443 9.963180106013592 1.2512239870342892 0 0 0
26 1 -0.03458922828864873 13.531449369496004 9.423480193952045 4.902951542525695 0 0 0
37 1 0.004070732215080123 13.882156458688199 13.34726331621031 1.4543141853598003 0 0 0
49 1 -0.003167241642403785 13.903980470863365 9.88300289147497 2.57737462673406 0 0 0
52 1 0.002315910728353244 15.735667787125461 10.393670115010904 0.4835790431580087 0 0 0
54 1 0.04054074025899589 14.819763139669584 9.810565204968881 5.251582007886951 0 0 0
55 1 -0.08383917249490555 15.2564060525241 9.879888512118118 6.566786822511703 0 0 0
56 1 -0.008149228365263906 16.139349401713133 10.414614851989235 1.7970073481754094 0 0 0
57 1 -0.0126979473509135 17.501459351112466 10.35324420720229 5.756960591003136 0 0 0
58 1 -0.05850067584275134 18.49201144059458 11.00497110311008 0.9426511532405946 0 0 0
59 1 -0.07192104943161551 17.965085213311973 10.72598842127176 3.361824940461981 0 0 0
60 1 0.02659103560100762 18.91497284859282 10.555104224265456 5.997962158855517 0 0 0
62 1 0.01312477213417265 17.080224214460564 10.373131444475373 4.407168509230044 0 0 0
63 1 0.005157549904775365 15.21939563662383 10.153908967966645 2.875935838639153 0 0 0
64 1 -0.01789332478103823 15.709424763356289 10.198241017221502 4.185285583549355 0 0 0
65 1 0.0431604808990678 17.513341906229744 10.769366423849355 2.00792341881331 0 0 0
69 1 0.0005397820314454547 15.00519201488157 13.191910829460198 6.3685883893044055 0 0 0
72 1 0.01881587648398398 14.978756220850627 13.623076792667659 3.5833362952791705 0 0 0
50 1 -0.00146381459309994 14.366454809659992 10.100445311724567 0.1749931689330111 0 0 0
71 1 0.01555987251810074 14.998858525128336 13.734250155521723 2.1924937470935366 0 0 0
53 1 0.01235434103564809 16.611579312284224 10.163017203363932 6.87416594530175 0 0 0
61 1 0.2697608110751455 19.296300565090792 10.956584809103108 3.667921023541449 0 0 0
810 2 0.02632471286994151 16.745605847537597 7.829958813528599 6.740952176038894 0 0 0
123 1 0.01051817540477163 16.21092645352391 13.55277644788414 5.781871850979423 0 0 0
111 1 -0.01884795320207429 16.178922319231166 13.760368797658407 4.373493548743988 0 0 0
66 1 -0.04327364652927505 19.73743228498127 10.829766260586975 4.896668776164682 0 0 0
67 1 0.25805871987995 19.85631467872525 11.303376145076083 1.2198551760448075 0 0 0
68 4 -0.4620510271328591 20.350221027536357 11.274731498584874 2.651543100630576 0 0 0
70 2 0.1318550827049378 20.829353065629615 10.895618511659244 5.07976722904117 0 0 0
73 2 0.07779717418899705 21.895993528805633 11.729729136591079 0.5215692769637564 0 0 0
51 1 -0.05656626914241043 20.815534604761172 11.437591173407498 0.2677310272852705 0 0 0
839 4 -0.5498957287163108 20.934364556918116 13.16729967976391 5.659807501365458 0 0 0
75 2 0.08457729279682073 32.84009095625498 12.333228475785951 1.6445142980871057 0 0 0
74 1 -0.0643871118259753 33.4802290096703 12.975776534468528 1.0793828010439261 0 0 0
82 2 0.02125642685760814 42.98057167934463 12.099927842780618 2.2380876345420515 0 0 0
85 1 -0.01959571490834216 43.274003055500096 13.159065799372469 2.1656527587213272 0 0 0
110 2 0.02107260429512839 44.97929077964395 12.819280167698677 0.9602051628797462 0 0 0
84 2 0.06657958848165846 41.12764895483803 12.731372376654095 3.5874930598474513 0 0 0
107 1 -0.0233244815230502 44.37875884535439 13.550700152154565 1.4309283113391018 0 0 0
96 1 -0.0756939783618029 44.45972463503803 10.872560572649407 6.927103748372897 0 0 0
98 1 -0.01789301260794877 44.87671456987658 13.052597095841755 5.779235723527495 0 0 0
106 1 0.02644003875620511 43.73247321503756 13.548361289332092 6.3945750796036736 0 0 0
93 2 0.05802264194850829 44.86249639934974 9.909520994103756 7.136000512187456 0 0 0
94 1 0.01440290978240639 45.315330030953824 11.736969672166884 6.134135675784407 0 0 0
81 1 -0.0743078044903229 41.31792026410238 13.790420369227798 3.5062263297078795 0 0 0
104 2 0.04116579833724516 46.66615251933339 9.144068936750877 5.738504625126736 0 0 0
103 1 -0.000136283358628462 46.622940888633735 11.25872809131265 5.755308291664805 0 0 0
95 2 0.06482614562354615 48.46881771163253 11.820510471596176 4.740805621291871 0 0 0
100 1 0.004450617759260649 47.47672519042152 12.135387776828916 5.07029709995627 0 0 0
101 1 -0.05990187916359371 47.105873545117596 9.903875226678334 6.350704588820912 0 0 0
11169 1 -0.03040958018371967 51.085580699292215 13.598583389227679 0.14516577883015075 0 0 1
105 2 0.0283741202376361 48.224265385465145 9.870839419336859 6.26476895483765 0 0 0
92 1 -0.1074041441135829 47.02908596535725 13.38887840744172 4.573642728266584 0 0 0
11181 1 -0.05294206206859602 51.122518376473124 11.320147420966366 0.8030127074814349 0 0 1
11183 1 0.2389463280149485 50.75106955099548 9.94052995074353 0.6911303152700807 0 0 1
11179 1 0.06674320301520116 51.60363631418564 11.927001523247217 2.051262728825709 0 0 1
11176 1 -0.04760021105852256 51.9157371414955 13.25651880199317 2.1790606052780905 0 0 1
11025 4 -0.462835032907784 50.74129356919675 8.955077693299868 1.9351670823241562 0 0 1
223 4 -0.5367252304155929 48.97850834744485 13.351715851296342 3.139276031769291 0 0 0
11027 1 0.256771812169002 51.07938547018006 9.65460321277427 3.181148988019107 0 0 1
11180 1 -0.03135513238133829 51.48960922463097 11.00290803057818 3.334642713293369 0 0 1
233 1 0.04825047157192151 45.79894224817952 13.902884931448627 5.040545029443418 0 0 0
220 1 0.6109848128310531 47.935880562946416 13.921299390375388 3.4972461381543725 0 0 0
108 2 -0.002087724873889695 46.63560856985422 13.11899973422459 56.05264116135924 0 0 -1
11171 2 0.08130348348077825 52.2147541267283 13.655836465914978 3.167793778534405 0 0 1
987 2 0.07404503005912268 12.881546233163652 15.359807373064074 4.865562870938993 0 0 0
113 1 -0.06153080206833385 17.301443613551868 14.037751610817988 6.508840354063545 0 0 0
112 1 0.006540760543345532 16.23407999188749 14.065849584840416 1.529236850267614 0 0 0
116 1 0.05240345223871678 17.37880108012703 14.18919215071312 3.7701903265528656 0 0 0
115 1 -0.04319320949418971 17.402291869783458 14.331702737824978 2.364422917462173 0 0 0
979 1 -0.02579380983009942 13.349031984435943 16.01190983522622 6.897537757438887 0 0 0
986 1 -0.0387837022599215 13.56915800518133 15.98505230751845 5.497929050539142 0 0 0
124 1 0.3046693407018236 18.46968461104058 14.505985452790146 5.879880791035934 0 0 0
117 1 -0.09200994772602379 18.53767786394409 14.582965105510628 4.5226102073922 0 0 0
125 1 0.2518092462743535 18.566576813879948 14.896578642824272 1.6776937888889354 0 0 0
129 4 -0.4601247177595993 14.832770295994026 16.85578874024453 3.3562789225824092 0 0 0
121 1 0.2247304508260204 14.66539430084601 16.71431407054833 4.92242799358658 0 0 0
122 1 -0.04739167433647629 15.834180767968082 17.14712236481296 5.328284607226559 0 0 0
114 1 0.2268831904108932 16.166700899240993 17.297740909024316 2.740877699217764 0 0 0
132 1 0.08109935383970016 17.026714246259143 17.627088525334752 4.997683468123861 0 0 0
118 1 -0.08932677716038048 17.179660571148712 17.77117732504518 3.493792547735599 0 0 0
135 1 -0.05617272190673079 18.14164513984134 18.06165456093907 5.9218349938285435 0 0 0
130 2 -0.0007251835444692157 16.202911101319746 17.252068906268924 1.6477767966318584 0 0 0
134 2 0.02502272657551113 18.334809478139192 19.07271161539021 2.0527231722747743 0 0 0
139 1 0.2067183484493168 18.475704844909703 18.32041854699765 2.8924714037204895 0 0 0
140 1 0.2583791344222286 19.19517222113337 18.764525063970016 5.432669958964867 0 0 0
144 2 0.02143743179090303 18.946405232448736 17.384820241380663 2.534364346118661 0 0 0
141 4 -0.4995087695251957 19.35637740739239 18.99730007550088 3.943245743998153 0 0 0
126 3 -0.4983563730577095 19.523271000253253 15.030874739343375 2.4837204902501075 0 0 0
11203 1 -0.07533726296989712 18.500918871041815 15.378946651384782 0.1351596972704847 0 0 1
127 1 -0.04318479508396663 16.221720873807573 14.058576067786943 0.14054141100495593 0 0 0
11228 2 0.03395038030810654 17.984755977344776 16.373455938449094 0.11831672326650593 0 0 1
120 1 0.3221154633779622 19.759132831469437 14.926094450625293 3.702993910409656 0 0 0
119 4 -0.5972061099010866 19.61924043169858 15.00662132290421 6.668246338962328 0 0 0
790 1 0.5896725764046103 20.85923564481931 14.105993483194164 6.427204065416485 0 0 0
137 1 -0.03716587165422905 20.23350465112684 19.14373597475299 6.282040431421695 0 0 0
131 2 0.04077481667398054 20.786289296819863 15.107198707668697 4.010905165696792 0 0 0
143 1 0.09753472361438063 21.28474249475869 19.87325359576335 5.495552441692675 0 0 0
142 1 -0.01716404896932687 22.53550530615695 19.27392036455816 5.32425324326114 0 0 0
145 1 0.03041011703097584 23.475332638733647 20.041981505044635 4.590551132749897 0 0 0
147 1 -0.009018329630732725 24.890544877170445 19.79304654372936 4.437016245404407 0 0 0
138 2 0.03904110944587207 22.732534528584036 18.26899556025097 5.640114506838439 0 0 0
155 2 0.02644379980628663 25.439041375998585 19.012502041403653 5.006854368378445 0 0 0
128 2 0.0600912319942076 20.726719487844534 15.821536701907958 0.2232686386655611 0 0 0
174 1 -0.007148893429971551 25.74009238671377 20.708220228685747 3.717739896109489 0 0 0
150 2 0.0653648084609658 31.742995350352086 15.943616920127642 4.9389709593109155 0 0 0
154 1 -0.06613560150059833 32.45371814303221 16.59970360166952 4.400539434416718 0 0 0
156 2 0.01846034944517229 32.069500900840076 18.201124490134273 5.7733835531780535 0 0 0
168 2 0.06200272358879442 30.287370062819736 16.355927232882284 0.7568637893339535 0 0 0
11293 2 0.04392557866191722 30.756773442791804 18.133578479818635 0.6778732086482697 0 0 1
11271 1 -0.05576326023281892 31.111685831431533 17.081937556410228 0.6452426394686706 0 0 1
173 2 0.03026156396169831 26.80624743963125 20.51743479061313 3.701313898351856 0 0 0
11283 2 0.01303193980747626 32.09243306730441 19.426857924261657 0.44405253919796744 0 0 1
167 2 0.04115616869343281 31.91783837284282 16.909950657224872 1.406353517297779 0 0 0
157 1 -0.004535547077322645 32.70052265380269 17.906754461822857 4.9178002277979616 0 0 0
78 1 0.00966377035656299 38.1890480267372 14.232895361017007 0.5750434297351829 0 0 0
76 4 -0.4898029190586884 32.74864586892992 14.670211749386016 2.789502044838697 0 0 0
77 1 0.2553798100480218 33.554181767715946 14.230103818476 1.570885643892395 0 0 0
163 1 0.2585823046410083 33.08963237870307 16.049086894141897 3.3002427942845523 0 0 0
152 1 -0.03251662748591067 33.525734965318364 18.81560472929646 4.266193238189099 0 0 0
149 2 0.01606664461113522 33.63259379539885 19.837602834818487 4.6101942308035815 0 0 0
162 1 0.02190638947784302 34.19844382444107 18.409669687338063 3.0749677643668365 0 0 0
170 1 -0.06836552658214574 33.94500312348188 16.958871340321494 2.6804620062727302 0 0 0
178 1 -0.0579475014835155 34.351373156780554 15.190332189782382 0.8388637344068607 0 0 0
193 2 0.004173153714537883 37.46242623968454 15.067549281551914 5.764967736913509 0 0 0
172 1 0.03060849519416366 34.70911095858073 16.534272113931245 1.443501633485403 0 0 0
171 1 -0.02557534678779854 34.89135394400339 19.36992118603633 2.312481409457568 0 0 0
180 1 0.01942434265833297 35.61603566030402 19.021058990598597 1.1529999686966115 0 0 0
189 2 -0.01290567295849626 37.104424221538395 16.09334569893112 2.208294424317914 0 0 0
200 1 0.00168666880065857 37.71079327532772 17.779216639433283 5.288038937641227 0 0 0
201 2 0.01221162387665207 36.83248094150778 17.524193843425973 5.789960344737685 0 0 0
148 2 0.01550432007456708 34.799367570225435 20.36372595837247 2.7058020189473413 0 0 0
166 1 -0.001040325419541624 35.534323787549745 17.499222633709447 0.8361204345005969 0 0 0
202 1 0.0236012805776355 37.995829142442425 19.085905753075775 4.962483696745567 0 0 0
198 1 0.3373079954222664 38.05518521174438 16.561235174867768 1.7343418173235996 0 0 0
159 2 0.02051500671036707 35.434034121109526 18.949660563944754 6.351275329129709 0 0 0
185 1 0.01460918795838733 36.37617322458317 19.964805550151954 0.3625892552776922 0 0 0
199 4 -0.5121180450322972 38.46571809891481 17.666013514369862 2.116920764021595 0 0 0
191 1 -0.04825574671786515 38.85444101663869 15.508120014655974 0.8255736304553726 0 0 0
207 2 0.01553971433984566 37.32638833822101 19.850815569603494 5.250046725161114 0 0 0
153 1 -0.05596318709596416 35.35684043073104 19.931351644691837 6.889999269876137 0 0 0
187 2 0.0360001987924572 36.51761937883905 20.99729181479282 0.7202189187528563 0 0 0
210 1 0.2406421808119228 38.349912203171 15.397245621972726 5.159642253195507 0 0 0
209 1 -0.05245528068714374 38.67836343848329 16.714689720851894 4.9588244875911505 0 0 0
190 4 -0.4979188755135632 39.30373563096557 14.299624965045485 4.7853560199670975 0 0 0
206 1 -0.01919231321610699 39.2821990008882 19.47064356820847 4.419920463625259 0 0 0
83 1 0.01359349360090979 42.46733061447962 14.117026620332732 2.8027988123470773 0 0 0
97 1 0.02583743754575224 44.81773321596948 14.877703358724318 1.3179610228679766 0 0 0
205 1 0.01450689673005347 40.13600134601195 15.805338630257308 0.2903658462847351 0 0 0
188 1 0.2704290277575839 40.47966077769972 14.734872401315393 3.959627252342508 0 0 0
230 1 -0.04524024273124125 43.44408432120298 14.949888784463242 6.273591327120749 0 0 0
194 1 0.08891498795355049 39.86276957171172 17.117831297258725 4.255888734114356 0 0 0
196 1 -0.0510782930556474 40.756660485230576 16.10386859923838 3.82029824886664 0 0 0
208 1 0.0270069793505733 40.231201478418335 18.450727315486027 4.098101791859832 0 0 0
216 1 -0.01533344166192619 42.77861546420996 15.524140986822456 2.610727535012971 0 0 0
235 1 0.007962916298192806 43.97308236563342 15.841718410383132 1.9686684610255412 0 0 0
195 1 0.0004344970095626873 42.31712430898032 17.88474391277779 3.010697522746656 0 0 0
197 1 0.01964730863630645 41.89427383532133 16.527338805438827 3.049349968992205 0 0 0
203 1 0.0008002882527574509 41.46661346599024 18.876749723930512 3.4994524582175908 0 0 0
222 1 0.03942685645418391 44.41510920882529 15.83415211423563 5.559840744908313 0 0 0
234 1 -0.07597590444207424 44.1972059541467 17.203677422188093 5.49652370696479 0 0 0
240 1 -0.009740934616323299 44.03218075247554 19.471109934731338 2.5931262949821305 0 0 0
244 1 -0.002908530222555978 44.28284961665741 17.146302497640903 1.809264207137063 0 0 0
247 1 -0.007436400762407235 43.58229350524629 18.158090089950722 2.522427664767509 0 0 0
218 1 0.2224979168057179 42.9920317477406 17.682865047412008 6.061969831189918 0 0 0
217 1 -0.07125596538888018 42.901793828387355 19.12842741756936 6.1565886011378215 0 0 0
254 2 0.02672500170884639 44.89484654778002 17.88358036374766 4.981625408604483 0 0 0
204 2 0.03036866775092977 40.72128661723154 16.698808827873787 0.5793566861610207 0 0 0
224 2 0.02756085398597811 43.73672979919707 19.716330909676945 5.818952434325251 0 0 0
381 2 0.01715851268279642 42.090149332057344 19.885979635950843 1.002061794671348 0 0 0
215 1 0.2347966322294661 42.2176181494956 15.423162904852076 6.7824442197953125 0 0 0
214 3 -0.5178942681229328 42.015941338391755 16.815847180562315 6.689938647042418 0 0 0
213 1 0.001482713884183488 41.888780635592774 20.209609712857766 3.494387730848635 0 0 0
241 1 -0.005294351809152711 43.20958003285029 20.469752208527915 3.13109962067019 0 0 0
184 2 0.01865929276617524 42.267313525567815 18.327360003053506 0.3042357361372361 0 0 0
212 1 0.03813150824530947 41.70464160593536 19.67243095880972 6.73231025613223 0 0 0
367 2 0.06929352816106361 39.74180911988007 19.104151341492262 0.6382101009948854 0 0 0
380 1 -0.01954196312945662 41.519145973332286 20.43635790142948 0.18121799572384265 0 0 0
350 1 -0.02647863993676419 39.96125700202039 20.08531334835883 0.1459120881641297 0 0 0
211 1 0.204629625615597 39.603732552307875 20.856938086241065 4.2772535627293475 0 0 0
225 1 0.00284921901944521 45.392675325132075 19.823426217250717 2.145224593430323 0 0 0
232 1 -0.03230310371222476 45.57749338213873 15.270120132886722 4.940096358543211 0 0 0
11174 1 0.2717157878675577 51.44228472399229 14.243572161933846 1.1491357714883603 0 0 1
245 2 0.08320699728435317 46.29112786530241 16.00859345378119 4.464421344530805 0 0 0
238 1 0.006514365510652567 45.53885897423211 17.571853105520987 1.2398980098659078 0 0 0
99 1 -0.02898532306800515 45.94062164136951 15.300604467185302 0.6505363217744767 0 0 0
231 1 -0.01764492445954391 46.097195187368044 18.849639303596298 1.3733449741844999 0 0 0
251 1 0.02906173861457532 46.32034587967251 16.54745819645262 0.6390737756717365 0 0 0
236 4 -0.7398849158107208 47.521987891541706 15.211424291204652 2.770617160151265 0 0 0
227 2 0.3867252611604843 48.08653256214578 15.295315661211658 2.083750197172067 0 0 0
226 2 0.03339043785902646 47.081187020115195 19.00958017357153 0.8837671226684333 0 0 0
239 1 0.03572014062690115 47.8227020586776 19.268407265944234 5.767496519144393 0 0 0
252 1 -0.004597212843813005 48.45543748952665 18.04732175276626 5.3485729323902405 0 0 0
257 4 -0.5018480042639514 49.66772923699572 19.378873561757093 3.6586968618286533 0 0 0
259 2 0.05561600791355339 49.38593449695144 17.186841224694966 3.5612106884612222 0 0 0
260 1 0.2095828116095932 49.62688661506866 18.013702672563568 4.297133570886643 0 0 0
11372 1 -0.05742462867923512 50.707689677515845 18.003154454760082 0.20931444185894252 0 0 1
11162 1 0.2348711954160345 50.87323686653098 16.59581677559108 0.08636273980059637 0 0 1
261 2 0.05320841690818142 50.63046215385274 17.90512142025699 4.760045018445398 0 0 0
221 2 0.04279906096384375 48.627441506583 15.957760542432856 5.597458309513714 0 0 0
246 1 -0.02095502323981734 48.118166952941614 16.855562754375928 5.842239768811914 0 0 0
228 1 -0.004611865034955298 47.9145457171735 20.468263901046754 5.002705120553404 0 0 0
258 1 0.2068291415407066 48.965847484780724 20.70468842527647 3.8868842076829484 0 0 0
243 1 0.01439465425195095 46.868849782451285 19.28163485795411 6.799208227735193 0 0 0
11167 4 -0.4523114615712478 51.32711274397365 15.78456128144321 1.3478338106944971 0 0 1
11371 2 0.07510305225667055 50.98815681754533 18.404842564280678 1.1512813674295628 0 0 1
11338 2 0.04348372842934241 51.11608174634504 20.034622934934493 1.1759936604016563 0 0 1
11370 1 -0.05270720934176279 50.258887476674076 20.670724328580086 0.8020873240978809 0 0 1
248 1 -0.01614138967184214 45.95648963409596 21.039551618940436 2.4692956883185446 0 0 0
11395 2 0.06304932494902839 49.362705084021414 20.427822377534813 1.4296008213163016 0 0 1
109 1 0.3340065485819917 46.87398698688328 14.239699252914656 56.05177102177361 0 0 -1
268 1 0.002704390391025172 18.12400959758047 25.905593357183893 6.01691883275398 0 0 0
269 1 -0.005006791612737581 17.881322008176678 24.67182491032504 6.623642197978134 0 0 0
275 1 0.005837167451286291 17.116223241598554 26.946642803839882 5.919237442177955 0 0 0
278 1 0.01910179638094866 18.93121657552324 23.72992952305587 6.576516143169564 0 0 0
273 1 -0.001290531038618791 15.782123663937554 26.56524259038299 6.381371792062336 0 0 0
265 1 -0.001416954047784398 14.731307922270958 27.605276310142592 6.301698671511699 0 0 0
264 1 -0.004396903647697804 15.58053865774331 25.27450644798048 7.068766429871581 0 0 0
270 1 0.009719417212436849 19.46248601683001 26.290545874326952 5.547776508921858 0 0 0
308 2 0.08256153553642244 19.745458358645003 21.31812348276852 5.006352381528781 0 0 0
133 1 -0.03866953956846201 20.792763707917015 21.061530897611362 4.9017422378404465 0 0 0
136 1 -0.01957973577493467 22.919206209247125 21.279702698743787 4.039663214038106 0 0 0
301 1 0.2565917994968344 21.6798466621701 21.787031512888664 4.176165746948118 0 0 0
323 1 -0.03784939143195766 23.614554109020123 22.31352225104179 3.2982192567488324 0 0 0
311 4 -0.4560829104711424 21.354494872580265 23.084828648891932 3.448316554401414 0 0 0
271 1 0.0005385596938552571 20.2635787361069 24.089500871778327 6.101392692889051 0 0 0
272 1 0.01644993235776794 20.503463995232256 25.30253497129519 5.528467691938596 0 0 0
276 2 0.0865278056234986 21.096080994727096 23.369174284784915 6.231983345854024 0 0 0
279 2 0.04446712287507102 21.456596598333743 25.617935830472486 5.125242830138657 0 0 0
285 2 -0.007631501698736476 24.026305701619297 25.210785084906345 5.359373429243566 0 0 0
306 1 0.2361180966569091 22.74051374179835 23.22591013977768 2.934436062422494 0 0 0
291 2 0.006385379573759344 22.99315242837212 24.157224637805943 2.364850010690676 0 0 0
284 2 0.03784696942297433 24.85378132012214 26.094305185974783 3.0316877025708804 0 0 0
290 2 0.01422911582761323 24.340780001883925 24.810427313966915 1.0618157381461697 0 0 0
303 2 0.08162611833113959 23.188769256421068 27.400289406720226 1.7101926758213768 0 0 0
289 1 -0.05484617997233113 24.274026662826667 27.682551050577423 1.5066692365191892 0 0 0
286 1 0.3434407622972667 23.904916602033165 24.598618999029412 6.289813678350225 0 0 0
310 1 0.00674228655730662 25.180707043361686 26.576164803069506 2.041094694581455 0 0 0
307 1 -0.02076215800476058 25.147004684638762 25.530445096045295 1.007306928320155 0 0 0
287 2 0.01702011814281741 24.688554774894225 22.742073946175218 0.8174836482422173 0 0 0
302 4 -0.4918287553456634 23.498762614800135 23.41788492644178 6.201854153906021 0 0 0
337 1 0.02288156687277627 25.075570664542706 21.931014852266795 3.274965154598663 0 0 0
11434 1 -0.01947657004676368 24.274643881367137 27.55015683949254 0.030054166908299935 0 0 1
267 1 -0.05463536203937535 19.65647093573673 27.650296808734996 5.118836939026468 0 0 0
280 1 0.2463159031857797 25.784229253943387 26.84561706026168 6.891562392687731 0 0 0
263 2 0.08355422297633583 20.711398189745196 27.928639687748976 4.895260280418207 0 0 0
309 2 0.01811133587691585 26.201498479451217 24.015861803145427 2.0631463777540477 0 0 0
11493 2 0.04560259073845715 29.11289087783167 21.78272564267956 0.7708508296512692 0 0 1
299 1 -0.01351133858034026 26.500678884757022 24.775781387961036 1.3083271478800842 0 0 0
294 1 -0.03954418409982782 26.673150498788328 27.0840550060753 2.1498568780865073 0 0 0
298 1 -0.02823835861265811 27.56140684479066 25.827901907888382 1.786658809586524 0 0 0
288 2 0.03718759445405689 28.157736871519116 25.441981905906644 2.689049401127207 0 0 0
296 1 0.6129683250457437 28.137300909896492 26.052732272661746 6.729938503847406 0 0 0
325 4 -0.5277993689618429 29.07224384427474 25.283264762605363 6.60117114704035 0 0 0
328 1 0.001987088586674407 31.31757443347195 25.390334295442045 3.503838910878848 0 0 0
344 2 0.04613590601058775 31.400180090425575 24.493974157470824 4.128674449216527 0 0 0
332 1 0.03495012292420591 30.35559876247031 26.39970256350731 3.7282304846136465 0 0 0
331 2 0.09771994465452447 29.540787364671157 26.26385756734967 4.431735992285285 0 0 0
295 2 0.0275010164188466 28.25316940496206 26.096460812472237 0.9363329434124094 0 0 0
333 1 -0.0580249133971267 32.28697151881031 22.54774491587583 3.399068893936081 0 0 0
327 1 0.005975002857194432 32.380776061203086 25.630960448873783 2.6247200496396896 0 0 0
346 2 0.02956286658744236 31.838877510762554 22.900254891866894 4.331340231146211 0 0 0
297 2 0.1033537012996082 26.782043431335403 27.426872310430884 3.2150753503693257 0 0 0
330 2 0.02013747848024012 31.503172761426605 22.67482760699527 2.6229689904014384 0 0 0
300 2 0.0173655701278651 26.87201742286111 27.924819264611003 1.43673579163852 0 0 0
322 1 -0.05876035741247576 30.453821603292802 27.594219480208988 3.0479214847091254 0 0 0
316 1 0.01847216086937834 31.393470287079932 27.813810769128803 2.063267359233667 0 0 0
315 2 0.003722201328745553 31.42603790256829 23.774832195029283 0.8064105604970259 0 0 0
11492 2 0.01011872657754345 29.676446381111475 24.38040769284269 0.7451488506960494 0 0 1
343 1 0.01817345037114959 32.38461199923208 26.828329308295718 1.8039978616749692 0 0 0
11485 1 0.1832598234877039 30.508457443783893 23.999576926234884 0.13491509026383147 0 0 1
320 2 0.01420498845063986 28.147399271981747 23.689746544972355 0.37107221609073027 0 0 0
313 2 -0.03882901735760141 28.339736743713896 27.14321532348465 6.829055886727881 0 0 0
281 4 -0.5563759531058238 26.697245284473944 25.608758497976297 6.951315028820056 0 0 0
175 2 0.02770329819551853 35.98717813833707 20.702452261554082 6.333783911329807 0 0 0
186 2 0.01227415825155795 35.55158698527255 21.087512741127917 4.710714153200256 0 0 0
341 2 0.01775356315881717 32.534052492300525 21.446165151687136 3.5225449111405074 0 0 0
11494 2 0.01555937846362806 33.649197484007374 21.305173055691252 0.8393493152394593 0 0 1
334 4 -0.4907293882457471 32.42767695091851 26.14237486001571 6.256088525811648 0 0 0
342 1 0.2468980065799578 32.83862760124739 24.656851614583342 6.393847188147818 0 0 0
318 2 0.02424514118990909 32.984297226192254 27.505452359492597 4.715228236635536 0 0 0
339 1 -0.006119641257881859 33.5266262448784 23.37902631901775 3.0799987214863904 0 0 0
329 1 -0.003422525094918949 33.44139120130928 24.621747004842653 2.3728132075137305 0 0 0
324 1 0.1948534702060364 33.45672566344331 27.11424316737694 5.619876732894428 0 0 0
345 1 -0.09955974646632618 34.04506575078367 24.181682849733562 5.836685731730143 0 0 0
347 1 -0.08338769171189636 34.790665983187274 26.426674093219926 5.383217112591694 0 0 0
365 1 -0.005743025716039398 35.0451404892589 22.085057132118383 4.607298254434779 0 0 0
336 1 0.03946503710928518 34.33215121784108 22.66761133748055 5.747108357242726 0 0 0
348 1 0.2467159323163574 35.07664740742815 25.133078849811493 5.462178807423682 0 0 0
349 1 -0.01427439987449877 34.666878418406526 25.07021455277657 1.6140105768970767 0 0 0
351 1 0.02603448003660264 35.85111337390595 24.270113629448392 1.6122558194890761 0 0 0
352 1 0.2359023888963357 36.985831676240714 26.102495886551008 4.7742666368756375 0 0 0
355 2 0.008106615468408218 38.052134275801606 26.197886841731385 4.485561931925794 0 0 0
357 4 -0.5113403385163268 36.557424487790186 24.748867972803186 5.0759532065568385 0 0 0
358 1 -0.01060105000840954 35.955945848025586 23.062117543270134 2.3876532887259216 0 0 0
359 2 0.0386580997716389 36.83715777167148 22.467731507078167 2.521778887090335 0 0 0
363 1 0.0187805403561238 34.88143232175789 22.867467987105673 3.3410372579782233 0 0 0
364 1 -0.09028766467657869 35.971203114191574 27.23660385009352 4.711114843047709 0 0 0
360 2 0.1961874252798791 37.73192557200642 21.546353034961566 4.649366572251419 0 0 0
317 1 0.02989327248371882 33.44160121827915 27.04980559239181 0.8646642057198297 0 0 0
314 1 0.01615728375859012 34.55796672144802 26.1908772384695 0.7794272133846952 0 0 0
11543 1 -0.0809045400388938 37.02886495383911 24.718270808771102 0.8948892095459889 0 0 1