C400_000 slab -x

12647 atoms
4 atom types

0.000000 156.508559 xlo xhi
0.000000 56.532850 ylo yhi
0.000000 56.532850 zlo zhi

Masses

1 12.011
2 1.008
3 14.007
4 15.999

Atoms # charge

1 2 0.040623 40.193799 0.429376 4.979356
2 2 -0.008688 40.897955 2.278757 6.129689
3 4 -0.664000 38.893898 3.296038 6.152518
4 1 -0.064247 39.445612 0.181759 5.789640
5 1 0.243578 40.383458 3.255142 6.260623
6 4 -0.430855 38.980704 1.293003 0.818909
7 1 0.363451 38.944657 2.528513 0.987959
8 2 0.029471 39.500862 3.006120 1.853430
9 4 -0.489800 38.956012 5.276499 1.222555
10 2 0.053645 38.205108 2.237985 3.247270
11 1 0.297015 38.039689 4.710317 0.249295
12 2 0.064622 41.978474 5.733176 2.881160
13 1 -0.152014 38.111300 3.354538 0.008228
14 4 -0.485305 31.497675 4.449689 6.227899
15 2 0.069166 37.606207 4.473920 4.249375
16 2 0.067022 37.509941 1.823029 4.843390
17 1 0.018744 32.340075 1.947524 6.206738
18 1 -0.070063 36.034003 0.240948 3.614588
19 1 0.290614 34.118832 1.190400 1.768794
20 2 0.128254 32.677547 2.438528 5.267121
21 2 0.077989 33.505864 2.596638 0.225128
22 1 -0.058266 35.816193 3.866629 5.153235
23 2 0.068984 36.339867 3.491221 6.051522
24 1 -0.046390 32.371775 0.774181 0.199582
25 1 0.257804 36.163577 1.494351 3.157455
26 2 0.036292 35.670252 1.000448 6.147894
27 1 -0.076473 37.297980 2.297489 3.848862
28 2 -0.050358 35.275265 5.385142 2.245863
29 2 0.057993 36.294562 4.107361 2.964714
30 1 0.577284 34.308560 5.485021 2.858834
31 1 -0.006288 36.798485 3.812664 3.944649
32 2 0.072409 35.019640 3.178942 4.812651
33 2 0.120198 35.545272 4.914487 5.348332
34 1 -0.007218 33.344684 1.607522 0.691719
35 4 -0.446462 33.301529 4.829013 2.578259
36 4 -0.513309 35.207147 2.129348 2.203496
37 2 0.062955 31.576891 6.139237 4.799715
38 1 0.294532 31.253496 5.823595 5.813585
39 4 -0.531588 25.185678 1.376516 6.068185
40 1 0.007423 28.271177 3.567038 5.940483
41 1 0.629965 26.995728 0.344580 4.059436
42 4 -0.537147 30.758184 1.293648 3.238531
43 2 -0.033946 27.989891 0.655891 3.563655
44 2 -0.014523 30.370291 2.279743 1.595347
45 1 -0.060069 28.853716 1.556535 5.655600
46 4 -0.528555 28.057017 3.964774 0.981408
47 1 0.415518 26.608970 1.840412 1.410580
48 2 0.022817 28.357058 5.592510 2.287319
49 4 -0.644923 29.272491 3.336545 3.328985
50 2 0.334150 28.430872 3.334590 2.794770
51 4 -0.531757 26.206236 5.224780 2.159481
52 2 0.041433 27.014215 2.384653 2.347396
53 4 -0.558723 25.785537 1.202854 3.688122
54 2 0.104291 29.377882 0.756302 5.135292
55 1 0.620925 30.133807 2.146963 2.663111
56 1 0.440567 27.616274 5.306054 1.460189
57 1 0.229108 28.789422 2.794294 5.016023
58 4 -0.467709 27.475285 1.307202 0.723646
59 2 0.126148 30.638621 5.477594 0.386404
60 2 0.067887 29.745537 2.951870 0.210762
61 1 -0.059084 25.127551 1.878062 1.001356
62 2 0.093225 21.230373 0.028457 4.693627
63 2 0.010479 20.915911 0.323283 2.833224
64 2 0.033266 24.755180 4.392862 3.999860
65 1 0.336734 24.518892 1.911060 3.392742
66 1 -0.051434 24.213323 2.073372 2.082989
67 1 0.513878 24.253516 5.429655 4.216171
68 1 -0.000294 19.659800 5.051541 5.795768
69 1 0.028829 21.516265 3.499333 5.088026
70 1 0.340391 23.923311 2.041491 5.724140
71 4 -0.553656 22.749858 5.393641 4.012953
72 1 0.258000 22.484496 5.761577 2.605148
73 1 -0.118292 23.596074 2.224435 4.414859
74 1 0.041643 22.303051 2.870561 4.118473
75 1 -0.000980 22.806059 2.570663 1.689048
76 1 -0.007662 21.881727 2.835898 2.767323
77 1 0.019893 20.311679 4.180377 4.822813
78 1 -0.012986 20.538959 3.468473 2.417325
79 1 0.013921 19.928418 4.363349 3.464606
80 1 0.015115 20.025397 3.670107 1.131280
81 1 0.015787 22.708111 2.660213 0.332741
82 4 -0.643745 24.587229 5.726351 5.630818
83 1 -0.046187 18.977780 4.410543 0.632356
84 2 0.359345 23.755629 6.010786 6.000989
85 1 -0.001410 22.565249 6.168483 0.328740
86 1 0.240761 16.571478 5.957236 0.098172
87 1 -0.008180 18.818196 5.204344 3.055021
88 1 0.004349 18.636518 5.947789 5.347255
89 1 0.032473 18.283746 5.154320 1.717689
90 1 0.005497 18.106797 5.955410 4.056831
91 1 -0.054993 17.128656 5.940430 1.430425
92 2 0.076558 43.979563 12.523109 0.144396
93 1 -0.072816 42.936322 12.169859 0.011095
94 2 0.032450 43.743977 11.935072 2.636879
95 1 0.015995 38.537073 8.058453 3.738258
96 4 -0.525308 40.905943 9.533482 5.448856
97 1 0.287986 40.454644 9.211233 4.095399
98 1 0.009610 37.915163 7.207302 2.713317
99 2 0.046864 37.912162 10.539043 1.416298
100 2 0.079647 38.456065 10.572515 5.116280
101 1 0.213352 40.729197 6.963716 3.906798
102 1 0.072633 40.549648 9.742290 1.595479
103 4 -0.460862 41.243928 6.577831 5.261705
104 4 -0.452056 41.080637 7.271693 1.575646
105 1 -0.014949 38.369199 9.912684 0.558264
106 1 0.220672 39.685348 7.693688 1.113584
107 1 -0.068097 39.483606 8.991831 1.010052
108 1 -0.050565 41.008486 9.841676 2.960819
109 1 -0.022818 42.891326 11.254951 2.320401
110 2 0.056492 39.380918 7.200928 5.895727
111 1 0.030370 38.022903 9.717068 5.595882
112 1 -0.113909 39.916876 8.051750 3.841901
113 1 0.151108 38.523589 6.761546 1.234218
114 1 0.024839 42.177745 10.621966 3.268655
115 1 -0.011584 41.111414 10.743290 0.796386
116 2 0.073187 42.618334 10.636649 4.251671
117 1 0.027519 42.372432 11.385423 1.019243
118 1 0.217657 41.182382 6.471746 2.813537
119 4 -0.518586 34.403335 6.387500 4.040602
120 1 0.538063 34.397067 10.171524 3.167661
121 2 0.087862 35.587409 8.602550 5.807459
122 1 0.280796 32.568147 12.301733 5.160494
123 4 -0.505232 34.400715 10.695257 4.494607
124 1 -0.014877 36.200854 8.164636 4.956617
125 2 -0.013979 33.470781 9.935029 2.597205
126 2 0.096925 33.546786 8.472105 5.562981
127 2 0.018639 32.240946 10.221073 4.528589
128 2 0.327250 36.242245 10.585918 2.917165
129 1 -0.011060 37.425299 6.848373 0.185838
130 1 0.248380 35.796397 7.134248 4.087868
131 1 0.019414 37.591738 8.551398 4.816643
132 4 -0.703591 35.611648 10.182401 2.334261
133 1 -0.052143 36.767495 7.018400 3.194518
134 1 0.120643 32.897652 10.898926 5.163640
135 1 0.204850 28.027670 12.262177 6.251638
136 1 -0.062699 29.278170 10.101112 6.278140
137 1 -0.029174 30.438752 8.011491 6.102289
138 1 0.032054 27.395298 6.691268 6.075060
139 1 0.233243 26.398601 8.680528 6.086014
140 2 0.377680 25.518466 10.414384 6.058117
141 4 -0.613195 26.052315 10.000429 5.445762
142 2 -0.008035 30.556828 9.776864 4.324188
143 1 -0.080967 26.030649 7.701398 1.581119
144 1 -0.031502 27.303901 7.690279 5.291705
145 2 0.015355 30.699392 8.228980 5.050261
146 1 0.305781 29.795643 10.416612 4.873482
147 2 0.054279 27.687288 7.824293 4.312677
148 4 -0.466024 29.441575 11.429993 4.257437
149 1 0.000595 25.598500 10.047366 0.941767
150 2 0.084577 26.721424 11.823723 3.311885
151 2 0.108972 27.307503 12.048350 5.424023
152 1 0.036769 27.009730 7.618454 0.563837
153 1 0.265983 25.638829 6.565610 2.371721
154 1 -0.096765 27.788935 6.442265 0.441958
155 1 0.037193 25.314008 8.909013 1.764381
156 1 0.006178 25.104331 12.451552 0.345910
157 1 -0.010400 21.029746 11.648648 5.230511
158 1 0.082086 23.776860 10.297527 3.083877
159 1 0.016402 20.215825 7.887513 2.899240
160 1 -0.006450 20.402985 10.398779 1.388668
161 1 0.013230 21.009675 7.784179 1.861696
162 1 0.273778 22.565900 9.342851 5.005818
163 1 -0.013202 22.025171 9.143445 0.008779
164 1 -0.065928 24.395047 9.021484 2.814295
165 1 -0.003404 19.444393 8.538383 3.675615
166 1 -0.084919 21.679634 9.478846 6.025059
167 1 0.015922 22.135597 11.613543 4.320921
168 1 -0.017179 23.951669 11.375141 2.204326
169 1 0.326491 24.169515 7.926070 3.661251
170 1 -0.005877 19.517623 10.826545 2.453334
171 1 0.003491 19.070371 9.810365 3.691219
172 1 -0.009410 21.120547 9.073196 1.157388
173 4 -0.489146 23.261124 8.025515 4.834610
174 1 -0.052246 22.786244 10.373162 4.073006
175 1 -0.081523 21.862241 6.451138 1.613204
176 1 -0.001740 24.862435 11.289149 1.113502
177 1 -0.136327 24.730475 6.703421 3.361610
178 1 0.003253 20.919567 10.612344 6.182457
179 1 -0.018622 20.834179 11.291051 0.305326
180 1 0.011689 18.814277 11.975023 2.450616
181 1 -0.000358 18.234837 10.190747 4.716953
182 1 0.020875 16.859888 7.421659 6.118816
183 1 0.059068 17.473279 10.724065 5.572861
184 1 0.595114 14.475295 12.034627 3.842815
185 1 -0.033307 14.560338 8.016777 3.286562
186 2 0.108428 13.633651 9.498047 5.468565
187 1 0.012870 14.548331 9.002882 5.619712
188 4 -0.563553 15.096277 11.031990 3.524005
189 1 0.001638 16.408246 6.695115 2.488777
190 1 0.003665 16.958122 6.721543 3.775116
191 1 0.040288 15.075874 8.187385 4.575909
192 1 0.343665 13.248232 8.727596 3.132636
193 1 0.011013 16.241080 7.417870 4.816715
194 2 0.107126 13.810809 7.830052 0.484701
195 1 0.036936 15.135652 7.335072 2.219126
196 1 0.002270 14.709934 7.336713 0.846859
197 2 0.037277 12.831026 9.437765 3.912953
198 4 -0.428605 12.587091 8.608882 2.073693
199 4 -0.461420 32.626403 13.027703 3.897566
200 1 -0.066738 31.823030 12.834890 6.150782
201 1 0.289700 31.848226 14.317645 3.763801
202 2 0.088532 32.001088 14.894988 2.826014
203 1 0.173751 26.513998 12.864266 3.212829
204 4 -0.505175 29.367263 17.876501 1.487010
205 2 0.061134 28.823167 12.914057 5.784017
206 1 0.251095 27.125485 14.978125 1.970992
207 1 0.623491 29.515455 17.531172 2.649257
208 2 0.061069 26.619860 17.415101 1.658691
209 4 -0.480393 29.109304 18.058024 5.345876
210 1 0.057916 31.134761 14.021327 6.057190
211 2 0.026697 28.747055 17.804824 3.424380
212 1 0.163431 29.798942 16.652114 5.546246
213 2 0.049858 27.677960 15.562286 1.281633
214 4 -0.447532 27.364411 13.569006 2.138844
215 4 -0.521618 30.471976 16.465872 3.067327
216 1 -0.022479 26.043978 16.932306 2.445194
217 1 -0.085465 31.142762 14.782920 4.805641
218 1 0.188644 25.691755 13.509349 4.053342
219 1 -0.046189 26.181384 15.590501 2.810228
220 2 0.079763 29.788691 15.644064 0.157487
221 1 -0.017535 25.456891 14.931288 3.839785
222 1 0.216760 30.430431 16.054026 4.529355
223 1 0.012231 25.125150 17.622101 3.272867
224 2 0.065110 19.621367 12.953553 6.165096
225 1 0.010472 22.861552 17.164939 6.213097
226 1 0.255928 19.982196 18.803423 3.550760
227 4 -0.467968 24.957310 12.853030 5.233396
228 1 0.262762 22.896403 18.563285 0.563094
229 1 -0.068919 20.285921 12.851596 5.300207
230 1 -0.076694 21.203027 16.325775 3.113648
231 2 -0.019321 21.215673 16.807909 5.290092
232 1 -0.060441 22.602667 17.361483 1.291962
233 1 0.245522 20.583301 13.973312 4.595080
234 4 -0.512703 19.818158 15.254913 4.912064
235 1 0.060983 21.570237 17.372732 2.302660
236 1 -0.001702 23.248540 12.617671 2.404329
237 1 -0.080928 21.528386 13.933394 3.617450
238 1 0.265953 24.046690 13.709954 6.094079
239 2 0.087532 19.020000 17.602918 0.781801
240 1 0.015688 22.343765 12.726637 3.440567
241 1 -0.020146 22.792102 15.003393 1.783689
242 4 -0.525350 19.525964 17.679437 4.450289
243 1 0.062232 24.638002 15.673916 4.692188
244 1 -0.009710 23.490957 13.782644 1.634433
245 1 0.047502 23.168955 16.111892 1.029522
246 1 0.005263 24.438929 17.001241 4.388046
247 1 0.045202 21.828899 15.085323 2.847436
248 1 0.460381 20.479214 16.533851 4.468689
249 1 -0.004479 24.439611 13.705412 0.605636
250 1 -0.053315 23.885870 15.051350 5.729854
251 1 0.040229 23.691521 17.811443 5.231478
252 1 -0.079690 21.012663 18.614953 2.599373
253 1 -0.037055 15.270124 18.297344 1.697276
254 1 0.013207 16.116876 16.025574 1.583452
255 2 0.028286 12.752511 15.894582 0.313084
256 1 0.036093 16.457064 17.284333 5.024899
257 1 0.020828 18.156469 13.138213 2.291579
258 1 0.027499 18.247090 13.605620 0.863191
259 2 0.045582 13.059649 13.942391 2.979434
260 4 -0.477890 12.617392 15.965521 3.815362
261 2 0.079254 14.633574 18.788377 0.944448
262 1 0.231152 13.590161 14.023562 5.064422
263 1 -0.026535 14.823378 16.863141 2.017919
264 1 0.046973 17.029492 14.850798 4.016759
265 1 0.075102 16.874635 15.815557 4.592200
266 2 0.084056 13.944827 16.558384 1.381047
267 1 0.190762 12.791571 16.792037 5.020895
268 1 0.179839 13.253411 16.269820 6.210959
269 2 0.051008 16.361462 18.213550 1.330082
270 1 0.026137 17.008339 13.894510 2.934023
271 1 0.007934 16.522648 14.513288 1.732042
272 1 0.120508 13.124921 14.478367 3.936533
273 1 0.023225 16.910339 16.093260 0.381137
274 1 0.033238 17.196543 14.485716 0.477792
275 2 -0.042623 14.273858 12.785134 3.019262
276 2 0.048323 14.725993 16.673823 3.106202
277 4 -0.503383 14.313983 12.705119 5.200633
278 1 -0.008078 15.869527 18.132706 4.118286
279 2 0.032136 12.450859 17.875660 5.005959
280 1 0.203359 38.571393 25.014080 0.597875
281 2 0.002121 39.768841 24.884716 2.987379
282 2 0.043363 33.124476 23.948259 2.217101
283 1 -0.050976 33.969569 23.207539 0.356440
284 2 0.032607 32.822825 23.640287 5.327881
285 1 -0.059320 32.257328 24.095961 6.090102
286 4 -0.579934 31.503990 23.001513 0.494586
287 4 -0.476409 31.993804 19.953174 1.743441
288 2 0.039381 35.165480 24.911760 3.012562
289 1 0.204550 37.534757 25.100271 1.479659
290 2 0.049029 31.821358 25.009020 1.774935
291 1 -0.000936 35.181177 24.498302 2.015494
292 1 -0.034131 36.334978 24.492281 1.176623
293 1 0.004720 34.017789 23.903805 1.584114
294 2 -0.036491 29.453570 23.744501 0.107607
295 2 0.083163 31.289459 23.345902 3.907428
296 2 0.026693 28.132564 24.139108 6.056246
297 2 0.108649 29.702359 23.358263 2.153227
298 2 0.039798 28.179763 24.074366 2.835863
299 4 -0.504765 26.675799 22.172266 0.913837
300 1 0.576654 26.087286 21.809728 1.928917
301 2 0.068014 29.659917 23.683135 4.780972
302 1 -0.053545 29.103433 24.295971 2.323205
303 2 -0.017780 26.578352 21.538282 2.881061
304 4 -0.545973 29.768022 21.497490 4.267065
305 2 0.051716 30.034982 20.442301 2.012868
306 2 0.082999 27.113985 22.742428 4.055875
307 1 -0.031319 30.540728 24.125796 4.254834
308 4 -0.510595 27.724111 20.683415 5.185715
309 1 0.616023 29.193024 20.714467 5.042279
310 2 -0.020698 29.743601 20.079482 5.746943
311 1 -0.019427 27.295190 24.510523 5.442399
312 2 0.081590 25.540502 19.389345 1.998838
313 2 0.028807 28.884096 24.847518 1.384930
314 1 0.651792 30.922982 20.361161 1.325332
315 1 -0.075434 26.452012 23.438369 4.668331
316 2 0.016360 25.782804 23.980491 4.008494
317 2 0.092737 25.906134 22.869676 5.409995
318 2 0.019019 25.313186 21.762660 3.914055
319 1 -0.035619 31.253873 25.047207 5.338682
320 1 0.004675 25.058069 18.966380 2.892079
321 2 0.119431 22.481157 20.622659 0.220932
322 1 0.221887 20.004940 24.315438 6.228136
323 2 0.079457 21.115724 24.876002 3.849596
324 1 0.001733 21.433493 22.193409 6.085867
325 1 0.015751 23.684656 19.185431 4.902613
326 1 0.201161 24.314405 21.297318 3.479109
327 1 0.010343 22.475103 23.170603 3.588100
328 4 -0.534243 20.880026 22.055761 0.951594
329 4 -0.547267 24.579546 21.576232 1.997094
330 1 -0.019308 22.227136 19.710420 0.843358
331 1 0.002512 22.682692 20.033186 5.610168
332 1 -0.024104 21.045066 23.545954 5.579582
333 1 0.003723 22.455529 21.452744 5.292165
334 1 -0.017013 23.041710 21.997740 4.107648
335 1 0.203181 20.506672 20.909785 1.829413
336 1 0.015633 21.543063 23.964644 4.330162
337 2 0.080013 23.939739 23.730851 1.401407
338 1 -0.038070 23.697098 24.722730 0.859483
339 1 -0.012509 21.244532 19.715073 1.800223
340 1 0.223580 19.589716 21.070609 2.823207
341 2 0.045347 22.888757 23.607141 2.659747
342 1 -0.002526 24.320262 19.753875 3.748821
343 1 -0.130574 19.289967 19.964791 3.562025
344 1 0.636379 19.596160 22.680358 0.446104
345 2 0.021873 24.691119 25.069429 0.604462
346 1 -0.017140 15.231161 19.029482 3.160495
347 2 0.023710 14.185145 19.239971 3.494060
348 2 0.060713 18.643820 22.190580 0.794290
349 1 0.040720 14.535237 22.195451 5.402379
350 1 -0.031355 16.170547 20.395669 3.102323
351 2 0.102684 17.073917 20.392602 2.443117
352 4 -0.573709 17.759502 19.936088 0.076634
353 4 -0.547717 18.770752 22.374885 2.999069
354 4 -0.594652 18.005544 21.776040 5.207369
355 1 0.608741 18.191225 22.645195 4.358426
356 2 0.027390 17.815356 23.722728 4.426005
357 1 0.008421 14.730583 21.993041 4.329274
358 1 -0.022156 15.173566 21.518520 2.874185
359 2 0.053211 14.277584 21.164830 2.349745
360 2 0.099895 15.586703 22.414552 2.328959
361 2 0.138926 18.601901 19.948949 4.396901
362 2 0.072787 16.464467 20.422889 4.151382
363 1 0.606014 52.147276 31.339035 0.500429
364 1 0.189854 45.044935 31.352817 0.302821
365 1 -0.038196 44.052170 28.536004 4.298770
366 2 0.001671 44.190216 30.742442 2.585857
367 2 0.053401 44.684840 27.695360 3.974136
368 1 0.146821 49.351564 31.101970 3.187430
369 4 -0.471923 50.065773 31.036780 1.830638
370 2 0.031131 45.587424 28.687345 5.908513
371 2 0.082677 45.410506 30.227803 4.939160
372 2 0.094469 49.377845 30.125119 3.669153
373 4 -0.584411 48.821929 30.869901 5.725676
374 1 -0.031531 44.861549 29.358817 5.390963
375 4 -0.516914 45.459099 28.589969 0.936021
376 1 0.367440 44.462833 27.951368 0.663656
377 1 0.171682 49.325379 30.875518 0.494983
378 1 -0.059394 47.996732 31.049320 0.496058
379 2 0.041755 40.477806 31.319301 4.178641
380 1 0.000281 38.118453 29.202356 4.675763
381 1 0.633149 39.006080 25.600343 3.440420
382 4 -0.452338 40.381267 30.788692 6.206266
383 2 0.055895 43.143046 28.189028 4.833612
384 1 0.021292 39.173240 30.249757 0.699982
385 3 -0.556095 39.865583 29.038283 2.991735
386 2 0.239562 39.379243 28.171189 2.840017
387 1 0.026600 38.509253 31.270812 0.019859
388 1 0.213495 37.729569 30.633720 2.639902
389 1 0.052023 39.165597 30.508881 2.131991
390 2 0.027391 43.566982 27.983643 1.346417
391 4 -0.538937 39.328705 26.188390 4.494346
392 2 0.097945 43.039958 30.459852 5.875641
393 2 0.090786 37.861476 29.177316 5.786264
394 2 0.057168 43.716810 29.128778 3.357566
395 4 -0.583144 42.117071 26.492878 0.196486
396 2 0.042090 39.768065 31.359007 2.416516
397 2 0.051420 39.764321 29.553674 0.148426
398 1 0.095941 39.715789 29.179428 4.483443
399 1 -0.070691 37.778908 30.522918 4.059217
400 2 0.212975 40.852872 29.267820 2.703663
401 1 0.326404 40.296584 30.524361 4.996656
402 2 0.102274 40.147259 28.269720 5.003627
403 4 -0.553938 39.770832 25.886619 0.797320
404 2 0.044407 31.820973 30.475295 4.061988
405 2 0.072158 31.816623 25.761991 4.673911
406 1 -0.040715 33.796112 27.296674 2.845023
407 2 0.020326 35.184633 26.321946 0.410556
408 1 -0.044635 34.420481 29.096706 4.347376
409 1 -0.031838 34.763932 26.563636 5.012776
410 2 0.014313 33.716189 26.208996 2.568204
411 2 0.056123 33.355064 29.167977 4.282354
412 2 0.023072 32.923611 26.660777 0.083294
413 2 0.070723 36.233444 27.378660 1.470968
414 2 0.013357 32.302180 30.252117 1.765474
415 2 0.052802 35.921046 27.681990 3.445046
416 2 0.044554 31.806477 26.257941 3.066317
417 2 0.033403 31.454512 28.507962 2.065645
418 1 -0.033838 32.181486 31.396622 3.637506
419 2 0.046267 37.665367 28.372394 4.136663
420 1 -0.054395 34.245567 30.790677 6.115017
421 2 0.295410 37.254707 28.670462 2.364714
422 2 0.022583 34.582486 25.555451 4.630974
423 1 -0.000717 34.931030 27.647043 3.888931
424 2 0.039350 34.066473 26.877028 5.771480
425 1 -0.040539 32.893556 27.703473 0.435126
426 1 -0.012070 31.410393 28.035974 1.054042
427 2 0.067637 33.120934 30.733160 6.187036
428 1 -0.067336 36.145254 26.564491 5.747492
429 2 0.051375 35.023439 29.862420 3.754644
430 4 -0.589902 37.674484 25.759412 2.832738
431 1 -0.021542 35.333759 27.341886 0.803989
432 2 0.045346 35.988416 29.397434 5.927189
433 4 -0.652870 36.780753 29.435185 2.096183
434 1 -0.021018 34.914106 29.361563 5.804140
435 2 0.066780 32.853377 27.757840 3.275092
436 1 -0.010102 34.056921 28.046363 1.438265
437 2 0.108526 36.985206 26.470170 5.042489
438 1 -0.023615 32.212160 31.311432 2.049953
439 2 0.040948 34.251456 29.073261 1.648135
440 2 0.043291 27.682074 25.271647 4.664841
441 2 0.100517 30.521733 25.560812 5.966576
442 1 -0.006189 30.024788 25.202423 3.217875
443 4 -0.603990 31.155644 27.902482 4.836030
444 2 0.018544 29.804635 31.026633 3.712045
445 2 0.019558 29.969575 31.307848 0.788791
446 1 -0.008697 25.835743 31.082096 4.901940
447 1 -0.013756 28.028109 31.036004 1.755903
448 1 -0.021961 30.572763 26.692634 1.195847
449 2 0.014077 28.959582 29.341204 3.559251
450 2 0.017045 29.599425 27.195009 1.434518
451 1 -0.035026 27.260986 28.034734 2.765853
452 1 0.011095 27.852366 29.242119 3.653686
453 2 0.030776 27.960275 27.251035 2.938342
454 2 0.016871 26.311826 30.108710 2.338099
455 1 -0.036102 25.352844 26.483848 2.316901
456 2 0.011111 25.174002 26.920301 1.273512
457 2 0.016975 25.146641 28.252602 3.439321
458 2 -0.036810 29.944359 29.261642 5.698305
459 2 0.045565 27.365680 30.793837 0.883219
460 2 0.024727 28.735916 30.493062 5.895337
461 2 0.009992 27.098462 28.307408 1.674788
462 2 0.010849 28.641899 28.529813 0.672801
463 1 -0.033142 31.184126 25.759578 2.312738
464 2 0.020673 26.053891 26.993602 4.418130
465 1 -0.073769 27.283696 29.034609 5.055096
466 2 0.021531 25.965981 25.580737 2.244192
467 2 0.012549 27.898151 26.719060 0.641078
468 2 0.067701 29.375294 26.068853 3.601821
469 2 0.021182 29.982914 30.197383 2.251236
470 1 -0.014312 27.198185 30.503420 2.877506
471 1 -0.003614 29.299807 29.273587 0.306621
472 1 -0.038116 29.479412 30.502540 1.364817
473 1 0.630424 30.082121 28.194644 5.344141
474 1 0.003829 26.127411 29.769477 5.462545
475 1 -0.029474 25.937119 27.458937 3.401485
476 2 0.020166 30.489134 26.090976 0.278388
477 1 0.249350 27.763396 28.015986 5.870103
478 4 -0.601851 28.980252 27.183699 5.589166
479 2 0.036451 25.685362 25.938082 5.861492
480 2 0.022337 23.946743 25.405838 3.740216
481 2 0.014326 24.890957 28.585244 1.539666
482 1 -0.016277 20.423711 31.085674 0.186425
483 2 0.046574 24.842434 31.168556 1.203770
484 1 -0.030661 24.293686 29.036390 0.729726
485 2 0.016481 23.402781 28.420689 0.600912
486 2 0.040827 22.029349 25.463247 2.217491
487 2 0.020128 22.762748 26.615508 1.042552
488 2 0.033298 23.472399 27.121978 3.514608
489 1 -0.038336 22.964043 25.841683 1.788712
490 1 -0.028776 23.496996 30.448288 2.597683
491 2 0.018237 24.256340 30.014119 3.285257
492 1 -0.030748 23.911118 26.203716 2.950736
493 2 0.030354 22.585100 29.874710 2.601353
494 2 0.024672 20.880839 30.200551 0.753854
495 1 -0.033816 23.955070 30.531138 1.060349
496 2 0.017885 23.134483 30.949406 0.437678
497 4 -0.488525 19.675029 25.728134 5.801462
498 4 -0.459454 18.282042 27.712972 5.641264
499 4 -0.440670 53.346551 31.428707 0.697414
500 1 -0.035896 52.997216 37.426993 5.867785
501 2 0.041345 53.035648 36.356611 6.147761
502 2 0.018820 51.442884 32.259697 0.636949
503 1 0.016027 45.979652 34.759187 0.496941
504 4 -0.486098 46.259492 34.823846 4.860852
505 2 0.105199 49.472087 34.918860 1.008684
506 4 -0.537917 50.161151 34.979205 5.322646
507 1 0.239234 47.946296 31.558036 2.999891
508 1 0.618667 49.103663 34.821315 4.703640
509 1 0.009698 48.475641 34.911505 0.484412
510 2 0.034790 47.527631 32.815896 1.516569
511 1 0.190800 47.377282 35.100620 2.634611
512 4 -0.522364 48.769603 35.344219 3.314092
513 1 -0.019484 44.936690 34.790100 2.614032
514 2 -0.006270 48.439570 33.986243 5.111833
515 1 -0.006959 44.738026 34.790573 1.190261
516 1 0.217433 46.241159 34.898970 3.368965
517 1 0.177658 44.854706 34.601472 5.479407
518 1 -0.047407 47.269162 34.979945 1.247421
519 2 -0.039719 47.917631 32.624551 6.108747
520 4 -0.536939 47.187845 31.877564 4.169623
521 2 0.080554 49.901034 31.841492 3.835511
522 1 0.579423 47.989967 31.735925 5.462532
523 4 -0.439256 45.735887 31.821681 1.539677
524 1 0.176105 47.361657 31.751772 1.618354
525 1 0.020841 38.828419 36.289376 1.307929
526 2 0.049966 37.833303 35.900269 1.679849
527 1 0.013875 41.126792 37.335104 0.287890
528 1 -0.012025 43.089739 37.423875 4.731387
529 1 -0.002946 40.739013 36.839815 4.472757
530 1 0.359791 39.223414 36.385086 6.251757
531 4 -0.730612 40.977292 34.441792 1.830166
532 2 0.110112 42.843708 34.321858 2.681785
533 1 0.201053 39.685019 36.445298 3.614714
534 1 0.547409 39.892562 34.038843 2.757891
535 1 0.031892 42.889314 37.361054 6.147105
536 2 0.086587 41.542355 33.755285 4.639894
537 2 0.060769 43.790375 34.596838 0.735855
538 2 0.401322 41.235032 33.669990 1.371526
539 1 0.013760 41.959291 37.191548 3.910715
540 4 -0.540013 42.936200 32.049969 1.318215
541 1 0.008070 42.395576 34.037253 5.270237
542 4 -0.574114 39.402724 34.884607 3.806331
543 1 0.252584 43.672464 31.489623 0.206891
544 1 0.023558 42.136662 37.281789 2.509265
545 1 -0.022672 43.629173 34.388136 4.685998
546 2 0.068602 38.719827 36.873148 4.047049
547 1 -0.022046 40.656780 36.671675 5.765366
548 2 0.026013 38.356962 36.268557 5.592749
549 1 0.046446 40.984961 37.146352 1.666823
550 1 0.026093 43.735181 34.467313 3.270270
551 1 0.020400 39.820799 36.644022 2.222424
552 2 -0.048807 39.459041 33.025579 2.667941
553 1 0.653900 43.374956 31.499324 2.673465
554 4 -0.606049 42.689193 31.596957 3.653126
555 1 0.023349 43.441159 37.642234 1.983022
556 2 0.034095 32.582055 32.350388 5.636785
557 1 0.239244 37.280122 31.462570 4.862648
558 2 0.030487 34.151693 36.427823 5.465753
559 1 -0.047214 37.276088 31.876590 2.120171
560 2 0.099972 35.561699 35.281507 5.638809
561 1 -0.046093 31.659921 35.707378 5.585865
562 1 -0.042113 31.880877 33.105992 5.395979
563 2 0.016862 31.509246 33.601955 3.330281
564 1 0.203529 35.933368 33.897655 2.329164
565 1 -0.000668 34.633134 35.649599 6.119022
566 1 0.022864 37.495524 32.059753 0.761840
567 2 0.013779 32.316096 36.661245 5.625528
568 2 0.051193 33.538756 33.106444 1.876002
569 2 0.390211 34.946614 35.472001 2.711259
570 1 -0.048306 36.660814 32.591038 4.301905
571 2 0.073941 33.146825 34.633958 4.266895
572 4 -0.625690 33.633177 36.536049 1.295095
573 1 -0.001511 36.639719 32.792952 2.937571
574 1 0.206235 35.966652 33.965178 1.022149
575 2 0.068045 32.035520 36.851327 3.157039
576 1 -0.012815 32.609031 34.475955 5.230721
577 2 0.026020 34.434755 31.620495 1.607265
578 2 0.113802 36.209157 33.313104 4.960343
579 4 -0.687492 35.200680 34.828878 3.249182
580 1 -0.042931 33.432625 32.110316 1.484917
581 2 0.039047 34.572863 31.606358 5.418162
582 1 0.631933 34.216157 36.161549 0.297105
583 4 -0.631963 35.306470 35.075251 0.307248
584 1 -0.032653 36.762140 33.109453 0.160225
585 2 0.037890 32.092339 33.823159 0.537280
586 2 0.022012 33.218306 31.618312 4.036313
587 2 0.033507 28.411436 34.939859 6.252882
588 2 0.016149 29.858472 37.216183 6.094494
589 2 0.092533 31.385017 37.365117 0.733117
590 1 -0.031550 28.150314 35.791929 5.565473
591 1 -0.038976 29.067734 32.608581 5.267549
592 1 -0.010991 30.510998 35.845625 4.493552
593 2 0.018429 29.155065 33.956693 3.041064
594 1 0.009102 25.380662 35.070639 3.561566
595 1 -0.001852 26.358183 32.835631 3.293583
596 1 -0.009825 29.790485 32.133853 3.953581
597 1 0.001256 26.560948 31.520652 3.746494
598 1 0.007036 25.942917 36.992988 1.976008
599 4 -0.591525 27.460283 35.056199 0.457793
600 2 0.138475 26.307614 37.168464 0.919185
601 1 -0.018441 25.526884 33.750753 3.990901
602 1 0.017452 28.211060 32.580613 1.753077
603 2 0.016432 27.184172 37.027345 3.857666
604 1 -0.038039 27.192130 37.545719 2.892246
605 2 0.010254 30.151651 34.823426 4.178086
606 1 -0.008993 31.318094 32.663707 3.964449
607 1 -0.014199 30.318864 35.960541 1.999083
608 1 -0.052094 30.387810 36.892676 0.757520
609 1 -0.034306 29.386098 36.729575 5.204285
610 2 0.063223 28.421216 32.877067 0.691487
611 1 -0.042188 29.459568 32.987687 2.699634
612 2 0.027876 29.649749 33.467579 5.669864
613 2 0.012703 27.692785 35.378265 4.602974
614 1 0.288137 26.724032 34.636602 1.689184
615 1 -0.031120 27.009229 33.337941 2.178258
616 2 0.037383 30.994128 35.112778 1.717412
617 2 0.076777 31.200531 33.350618 6.275622
618 1 -0.040571 30.930101 36.710521 3.274417
619 2 0.018162 26.205670 36.528906 6.132339
620 2 0.048753 29.574340 37.644572 0.787380
621 2 0.042975 29.248891 35.760314 2.182820
622 2 0.015824 30.424350 33.146449 2.117814
623 1 -0.060662 25.987749 35.494106 2.411963
624 2 0.019900 28.070619 32.946208 5.044240
625 2 0.010935 28.981347 37.501876 4.533169
626 2 0.033549 28.116639 37.289404 2.313767
627 2 0.014002 31.317919 31.891747 1.589750
628 1 -0.047823 23.074806 31.869266 3.016071
629 1 0.001747 19.768172 32.046607 0.803914
630 2 0.019613 19.188186 36.718553 3.998227
631 1 -0.003671 23.887504 35.545584 5.383162
632 2 0.025177 23.945886 32.520369 2.942336
633 2 0.018412 21.740862 36.624961 3.466877
634 2 0.026624 22.168489 35.624597 1.198982
635 1 -0.013440 23.962549 34.148985 5.790408
636 2 0.013571 21.923049 33.902604 4.250389
637 2 0.019071 22.316032 32.264410 2.338195
638 1 -0.061064 19.795746 32.694014 4.847336
639 1 -0.025641 18.847320 37.448983 6.021031
640 2 0.033761 18.909158 32.025121 4.938908
641 1 -0.013979 23.232388 36.493601 6.202928
642 1 0.042451 24.720740 37.656840 2.462827
643 2 0.016553 20.614890 37.627305 4.793355
644 1 -0.008697 25.007189 31.969533 5.644177
645 1 -0.047590 22.037780 34.931201 2.046047
646 2 0.009162 19.289757 34.841088 6.261013
647 2 0.021550 20.255702 32.962763 5.794668
648 2 0.019526 21.454054 34.062814 1.775380
649 2 0.030423 23.074445 34.629287 2.380344
650 1 -0.031846 21.093546 34.711775 4.299292
651 1 0.003629 24.895042 33.304694 5.175690
652 2 0.014112 21.310916 35.252273 5.246891
653 2 0.029219 20.522103 32.163117 4.194414
654 1 -0.021973 24.238027 37.285270 3.739887
655 2 0.033522 19.659013 32.056564 1.860456
656 1 0.001861 24.465355 36.003807 4.212182
657 2 0.015621 20.579370 36.267659 0.264547
658 2 0.020529 20.261407 36.030779 2.708809
659 2 0.020912 22.701925 31.939014 4.091331
660 2 0.048253 19.258451 34.128837 3.243858
661 1 -0.021497 19.589057 34.174485 4.296055
662 1 -0.028673 21.221393 35.731559 3.132601
663 1 -0.030521 18.512009 36.473759 4.854621
664 2 0.023126 18.732177 36.929549 0.601784
665 1 0.230497 15.746488 33.579673 2.164510
666 1 -0.011103 13.659556 33.462148 3.497027
667 4 -0.473836 14.732124 35.735688 4.915592
668 2 0.038763 15.393488 33.113004 6.175216
669 4 -0.664567 17.230795 33.964355 2.301381
670 1 0.357690 13.049229 35.749907 2.635995
671 2 0.073900 15.255389 35.483687 1.461453
672 2 0.016351 17.672290 34.487913 5.428702
673 1 -0.072283 13.033506 34.264280 2.354247
674 2 0.288442 17.517150 33.567885 3.073501
675 2 0.032633 15.550941 33.062013 4.191300
676 2 0.024320 15.622461 36.015788 3.094978
677 2 0.007626 16.613116 35.161172 4.503504