LAMMPS data file via write_data, version 19 Nov 2024, timestep = 3863640, units = real

12647 atoms
4 atom types

0 156.508559 xlo xhi
0 56.53285 ylo yhi
0 56.53285 zlo zhi

Masses

1 12.011
2 1.008
3 14.007
4 15.999

Atoms # charge/kk

91 1 -0.0653986135376604 17.752278599054875 5.139777717606556 2.102349882751988 0 0 0
86 1 0.254103519818302 17.2184882767957 4.84625691651092 0.8310222029571662 0 0 0
190 1 0.002310963638237175 17.62156229630154 6.314572376951538 4.292229804843928 0 0 0
189 1 0.008334740226632487 17.096591376580655 6.100485521765896 2.987226118439011 0 0 0
11928 1 -0.07916907933738909 16.0705563375325 5.547674208034077 0.4866402733406876 0 0 1
90 1 0.01003292153283961 18.784102824888173 5.63011320972333 4.819928326905266 0 0 0
89 1 0.04042885502556594 18.850780038298392 4.372786575271491 2.6969083044761795 0 0 0
11873 1 0.430402332533503 19.219601372928107 3.41883124721984 0.23454048671025418 0 0 1
2468 2 -0.04088673914208722 19.34087143879568 1.5087125029992234 5.442293156511371 0 1 0
2469 1 0.6142440715794131 19.767711236121155 0.8774074651008381 6.27906383609158 0 1 0
87 1 -0.005457922721934863 19.345867527774118 4.623160591633002 3.998913126127513 0 0 0
83 1 -0.05995949425222568 19.52202564371625 3.50034375423458 1.7790459439333166 0 0 0
74 1 0.04428633293697773 23.180293079546313 2.8520776268664747 5.207500825337899 0 0 0
75 1 0.005351280717811715 23.481349366554408 1.9400844397915387 3.0012877900966606 0 0 0
76 1 0.01999166396008285 22.66677008447343 2.6138746855958424 3.986158313273247 0 0 0
77 1 0.04765646638018795 21.18272284436147 4.3386087013188686 5.7067819932048875 0 0 0
78 1 0.003687668813844634 21.249868823423874 3.0350183426324495 3.608945974120691 0 0 0
79 1 0.01545774704881187 20.514399981529884 4.003170603970045 4.505407057468302 0 0 0
80 1 0.0157682186052767 20.58425006138427 3.0046578790129974 2.4107174135499245 0 0 0
81 1 0.01359149895525549 23.27422069899906 1.614448872442691 1.6963115253312397 0 0 0
73 1 -0.05662409138478545 24.514535587187936 2.382096848142793 5.56243146036782 0 0 0
71 4 -0.559798792296775 23.354538259139318 5.444770271028717 4.037743160858221 0 0 0
11861 1 -0.0410950030145744 23.79452663761675 1.2661417575714344 0.5518431039622768 0 0 1
72 1 0.2576906482942853 22.9329659482622 5.8617577483968155 2.6466902766394744 0 0 0
69 1 0.04809218178880541 22.414579621039493 3.6812372338779538 6.062399317294071 0 0 0
88 1 0.006674508883373753 19.224156482849068 5.856395131304065 6.105498662090892 0 0 0
85 1 0.0004434492741006195 22.66391881562916 6.056570932548037 0.4006445130556172 0 0 0
67 1 0.529945993522359 24.796693519196513 5.670080239023816 4.302588515765783 0 0 0
66 1 -0.05108991065319064 25.024088582533413 1.8595190392168657 3.2436210362786047 0 0 0
82 4 -0.6609316044423208 25.01382655134482 5.8630489658861835 5.753199592914626 0 0 0
84 2 0.3691310485215679 24.217273616499025 6.264946946525981 6.039391336128077 0 0 0
64 2 0.03527402124361557 25.325571569763845 4.779628340960937 4.020927297711163 0 0 0
11859 1 0.2465302483584564 25.241215881949145 1.3641557185844049 0.8055901419796134 0 0 1
65 1 0.2741531609617023 25.409695813719786 1.839710487754487 4.581000072018724 0 0 0
61 1 -0.06520115538864499 25.804256952168885 1.6554363588971976 2.0029318749529783 0 0 0
50 2 0.3152538690335854 29.77949244853876 3.2333040121031638 2.4157973445705303 0 0 0
52 2 0.03718473773420357 27.56150973617923 2.5836387035351764 2.998890261854423 0 0 0
53 4 -0.5263262016515122 26.800897363447948 1.3814242656695583 4.964930414002168 0 0 0
57 1 0.2293003013061508 29.883048812015183 2.59727981249201 4.631257950892428 0 0 0
47 1 0.3571306831843917 27.319464731513406 2.0124416252309563 2.132747278866953 0 0 0
45 1 -0.01544200928027588 29.98411003830759 1.2974983636496389 5.157612182927602 0 0 0
58 4 -0.3790395282469278 28.142117009643098 1.5594346580474372 1.2999974212569931 0 0 0
40 1 0.003526222519849339 29.249785264549267 3.265063263517823 5.503198034835467 0 0 0
51 4 -0.5347959561556785 26.9442163381038 5.696525293112723 2.5543004464993126 0 0 0
56 1 0.4405188499125707 28.26755914756755 5.645771892889271 1.8167477155598333 0 0 0
48 2 0.01398181750542219 29.088537700310464 5.642908965252624 2.5572539803313563 0 0 0
49 4 -0.6253512665167527 30.612034218866157 3.2254783567062715 3.054482747004539 0 0 0
54 2 0.1307634608513634 30.49152370734633 0.4757860417766101 4.605654687227923 0 0 0
46 4 -0.4973533147240448 28.463636009098238 4.280366314211354 1.1664288713464102 0 0 0
59 2 0.1072210362871863 30.97089188118156 5.5199924547290795 0.8835428015703405 0 0 0
41 1 0.57029652307964 26.99486177367058 0.1813248918664144 4.082398526319743 0 0 0
60 2 0.0587910697199357 30.365358055709603 3.4925919714993436 0.44503519650300977 0 0 0
55 1 0.5968499322572918 31.639820660147922 2.1334009396056346 2.4652515938418835 0 0 0
44 2 0.02798604791801302 31.950937194691335 2.461000335844507 1.4660064071802226 0 0 0
37 2 0.05511259321054239 32.01100753783595 6.1520579599782055 5.068656925488619 0 0 0
42 4 -0.5396369152988471 32.209575285261224 1.3264763181173285 3.189317326712765 0 0 0
36 4 -0.501861168831806 36.18052527108276 1.0411684576113005 3.2665345687094987 0 0 0
21 2 0.09707282112730915 34.37188388534658 1.4433795581154114 1.5047376183328873 0 0 0
20 2 0.1421630397530481 32.763182633118355 2.304055811167381 5.489975515136529 0 0 0
34 1 0.02407001390096747 34.203669899251324 0.44584136189502144 1.9995092394089062 0 0 0
38 1 0.2825502634944155 31.827226422888895 5.832807356542743 6.138747032043783 0 0 0
25 1 0.2695908066310165 37.2621111766368 0.5171618692932833 4.112160260089344 0 0 0
29 2 0.07393619646286417 37.37645248214654 3.363761060057913 4.399535745630024 0 0 0
15 2 0.0649554327909027 37.96911212455178 2.891662131562775 2.8034372359918 0 0 0
16 2 0.02930880454202541 38.649812219849416 1.3291956908734457 5.503406375955345 0 0 0
23 2 0.1043787474030457 40.40407151575206 3.182760419826457 3.8770271603317736 0 0 0
31 1 -0.003997402895983599 38.2339729674168 2.86619547938319 3.865811069967777 0 0 0
27 1 -0.08948396449632048 38.493093822242734 1.3503354541247556 4.408063185415959 0 0 0
9 4 -0.4113511602145887 40.14409604853719 4.3780148038701645 1.0339383403355233 0 0 0
12 2 0.09732580897597533 42.82272790541387 4.834730446839459 2.283767004648949 0 0 0
22 1 -0.05279345200017691 39.50720783426914 3.655331359168743 4.261720679669223 0 0 0
32 2 0.06156576586641414 39.534699772091386 3.7485267360598384 5.365913121242972 0 0 0
33 2 0.07496476114547676 39.4338672519772 4.648437637827732 3.8070376537801733 0 0 0
103 4 -0.508726341752421 41.92530895289958 5.557313743731916 4.763370910459239 0 0 0
118 1 0.2082534361134086 42.12550777387626 5.691578736229654 2.3429193459689577 0 0 0
113 1 0.1287758664351874 39.516862016198196 5.829764637637016 0.8606074927997004 0 0 0
10 2 0.05260612899517917 39.32205311214078 1.013757266326068 3.7875876846903678 0 0 0
101 1 0.2187540919966707 41.56961186954359 6.044222636311728 3.3442604991892315 0 0 0
11 1 0.2800250663021571 39.10821011520723 3.609445370888021 0.33930160694520495 0 0 0
1154 4 -0.6481542299488298 38.29174763060248 5.649670392705695 6.169851271511817 0 0 0
6 4 -0.4500605666311958 41.09862817979877 2.228898862655345 1.7366271015123884 0 0 0
1271 1 0.3691119740262636 41.14753371024384 6.202826440354755 5.8720962206223355 0 0 0
7 1 0.4080217389301934 40.61348077730119 1.7095890282092925 0.7413517003659919 0 0 0
2405 2 0.02497363514588186 40.98419049369245 0.19349328348642889 6.0791758829895794 0 1 0
2 2 0.03521196147327461 42.914564542079496 3.363409747013457 5.440285605058439 0 0 0
129 1 -0.0007007404161977291 38.379436684586025 5.732804046046003 56.503321202549564 0 0 -1
13 1 -0.1558831030572346 39.349320840796665 2.3276488225893703 0.04962730453955812 0 0 0
8 2 0.05859060373305629 41.3379617291218 1.0618508710284633 0.182120515188518 0 0 0
1124 2 0.3646373924678368 43.78451309266943 5.439148255418305 5.83569233200073 0 0 0
5 1 0.2809480330253106 44.01426920824953 3.530067563851155 5.602150217076434 0 0 0
3 4 -0.6289600720944102 44.50412818091711 4.846332031508219 5.936580879674001 0 0 0
196 1 -0.0006971805873890223 15.39446364751101 6.468065210940089 1.2543312101712765 0 0 0
195 1 0.02988374022213493 15.917937262881507 6.770678065654819 2.5408162315547997 0 0 0
194 2 0.09620813628547852 14.41681482371469 6.847017675419888 0.8590570666460513 0 0 0
198 4 -0.4390165062623407 13.343259018683902 8.172680664657424 2.1025783050076945 0 0 0
197 2 0.03791951135769246 13.704169030337919 9.285427405230667 3.729664654317595 0 0 0
185 1 -0.04474955439140783 15.302994603786006 7.698567382410868 3.425631240544595 0 0 0
186 2 0.1106627598053344 14.221445301984739 9.293330919878215 5.318830441775123 0 0 0
187 1 0.02731653983159451 15.110731145671432 8.720081316917415 5.658389758907803 0 0 0
188 4 -0.5566227441848061 16.07288131136228 10.723011500501046 3.958600623579664 0 0 0
191 1 0.05128759463172073 15.769093234083847 7.891507252716987 4.695656594859807 0 0 0
192 1 0.3458041642029639 14.062978588496298 8.45198815606219 3.0731173878511107 0 0 0
193 1 0.01906183791077721 16.89474062549598 7.162140840414387 5.201040556922452 0 0 0
184 1 0.5769547153097306 15.38044617127245 11.728635195128268 4.164363945317156 0 0 0
275 2 -0.03532120774822706 14.48867779045496 12.000790250365313 3.5409325103834406 0 0 0
183 1 0.08421979128184229 18.245187084768848 10.853442088453424 5.956407127224891 0 0 0
277 4 -0.4920256194616125 15.381946412167121 12.511311987486392 5.481799449627692 0 0 0
181 1 0.01607680161367186 18.890222635548305 10.449044091018477 4.980014635559323 0 0 0
180 1 0.01045833036341882 19.480170988447725 12.11444799801808 2.5795986575045053 0 0 0
175 1 -0.08715854780657573 22.21617361302007 6.446603809733023 1.7104464630153418 0 0 0
171 1 0.007030083027900181 19.691294025491963 10.047499793377721 3.8553720742550848 0 0 0
158 1 0.05943238494394338 24.0627155616136 10.648513383371979 3.1662627484067847 0 0 0
159 1 0.009383687769453199 20.526182787772015 7.8612476502872 3.0301254843273577 0 0 0
160 1 -0.004592925161884204 21.11084971844527 10.507933717744878 1.6346377125541238 0 0 0
161 1 0.02059803144215517 21.396255377470652 7.848152772411628 2.084737433371957 0 0 0
162 1 0.2791761790920745 22.877833232742635 9.691183369751068 5.1261371897186265 0 0 0
165 1 0.00310466954397572 19.957943429725834 8.748733660407561 3.6763116572221324 0 0 0
170 1 -0.005890672005721624 20.207068039121513 10.938944721219313 2.666807759939248 0 0 0
172 1 -0.009513004871594772 21.620162335682227 9.119949581688479 1.352274966592393 0 0 0
173 4 -0.5027009582639795 23.477788766846796 8.35330057618453 4.925812992151603 0 0 0
174 1 -0.05062219481641166 23.067165370791262 10.71528981985195 4.146648686785762 0 0 0
168 1 -0.02025714543689414 24.331853253225226 11.73823176938158 2.2793653767589874 0 0 0
169 1 0.3173110635399609 24.501875289643433 8.30878934320596 3.8173373603309164 0 0 0
179 1 -0.02164001784255507 21.601645230975436 11.500577902979236 0.6643277155562571 0 0 0
167 1 0.005940208771878473 22.40203947621093 11.993815358456597 4.300065061415947 0 0 0
157 1 -0.00273028573523052 21.45081121509393 12.120225060275178 5.389514449085999 0 0 0
164 1 -0.05696984860316936 24.781309791828118 9.393045557375233 3.013445365693038 0 0 0
163 1 -0.0003336135331263937 22.523351630470074 9.228471995522469 0.20936274580686198 0 0 0
166 1 -0.1035752157089067 22.07094022144353 9.952409224630971 6.217906312819157 0 0 0
177 1 -0.1298930498561311 25.138800751879693 7.110843304511434 3.572493276767246 0 0 0
176 1 0.009318428728278606 25.238899175216446 11.660610184711095 1.2217463213772224 0 0 0
138 1 0.03055379062206953 28.258220008584054 6.416389956130888 5.723420556835453 0 0 0
155 1 0.03450307321817181 25.702663154285872 9.349853111154156 1.9108416837041142 0 0 0
149 1 0.001553158231654875 25.94579028424348 10.40564754800936 1.029877900621984 0 0 0
154 1 -0.08710114223540696 28.385270490361954 6.775590813366506 0.7899534417753906 0 0 0
153 1 0.2635625728784575 26.19351985402272 6.986308352570622 2.712014141873617 0 0 0
143 1 -0.05756134523419491 26.529118907977345 8.110034480686819 1.8782783663797327 0 0 0
147 2 0.06331283126770193 28.403259089712016 7.709657999316104 3.905616362821862 0 0 0
150 2 0.1091951306627412 27.189946610622833 11.341576843398308 3.7169672699407874 0 0 0
144 1 -0.03437699438551022 28.10579784767839 7.489639202016332 5.015996896128359 0 0 0
148 4 -0.4885733836389438 30.257663765913644 11.913014534097723 4.775932111567075 0 0 0
141 4 -0.6269753363603823 26.858166836997242 9.740229427128915 5.20462723212427 0 0 0
152 1 0.04139335664817096 27.50123019683396 7.894892319474143 0.9002161056878675 0 0 0
139 1 0.2354100559756088 27.20925308221951 8.406607209257531 5.802588520954974 0 0 0
140 2 0.3715147028171702 26.29967652879274 10.130721649622439 5.843364423096518 0 0 0
146 1 0.2241498562742001 30.64332994113493 10.7310042810304 5.506570759303598 0 0 0
151 2 0.0915568423454088 27.765460985291565 12.095951406448965 5.896889300880187 0 0 0
203 1 0.1793565437938057 26.99275104228829 12.41572289738066 3.571054348902433 0 0 0
227 4 -0.4915129429604469 25.31482844896937 12.48750044586316 5.505664804407738 0 0 0
11910 1 0.003601232101561188 26.813928175113954 10.236552461480745 56.46249691055074 0 0 0
145 2 0.05955692569726859 31.46293463365718 8.352048953356482 5.420326071092881 0 0 0
142 2 -0.009756489047044984 31.48694653515832 10.103827894690998 5.111174331734915 0 0 0
7300 1 0.25801145033723 31.48344346974808 11.742180213952745 3.8674811499433104 0 6 2
133 1 -0.04061646837355383 37.42824081397442 6.416234678415494 2.390405220067628 0 0 0
119 4 -0.4950496394973692 34.894654975042464 6.793285689603179 2.582244976471987 0 0 0
7304 1 -0.04981894119487658 32.50951401846287 11.795636622610813 3.0871853714325574 0 6 2
130 1 0.2486714317368193 36.38016158040087 6.813936985601017 3.008438180508079 0 0 0
35 4 -0.5258158607978781 32.910591072483435 7.955746208074337 3.390973316373877 0 0 0
30 1 0.5857601087778721 34.09789406241269 7.6874279199413404 3.5462742074369227 0 0 0
28 2 -0.02954509719792922 34.625407673184256 8.125679674486221 4.418739256459829 0 0 0
124 1 -0.0655061572738921 36.94026002642282 7.5468988337897285 4.147748376142025 0 0 0
121 2 0.07345677497051439 36.34070685397894 8.027426567588362 4.944964061220962 0 0 0
126 2 0.06051678076642271 34.701294986370904 10.96532342579987 5.389421425494305 0 0 0
5499 1 0.04569340739353888 33.49531339008099 11.972269063787087 2.2573879039357228 0 6 2
5502 2 0.01879057954101904 34.40985888213282 11.8572493297518 1.7214398073079493 0 6 2
1284 1 -0.08659327669496306 34.15431092207023 11.138081149922515 6.310086086879786 0 0 0
110 2 0.08000831638338514 40.00738446133238 6.169962844000189 5.6303471041762885 0 0 0
98 1 -0.01468959996226403 38.73479845962802 6.292205063277192 2.2429630226776305 0 0 0
104 4 -0.429645492628914 42.03976532616989 6.41325267820653 1.0420379438575753 0 0 0
131 1 0.0355552566859883 38.34347414269489 7.737031297913622 4.2670927341762965 0 0 0
106 1 0.2117648849815394 40.589941956358786 6.861944084157923 0.8395067974875289 0 0 0
111 1 0.02522480227025852 38.70367144946432 8.870191361452578 5.157836858786637 0 0 0
100 2 0.07020743214883503 38.999723560196095 9.750868269216681 4.575678356695648 0 0 0
99 2 0.008849172031211992 38.690731592259695 9.511215391472291 1.0603812685740908 0 0 0
95 1 0.01578625536128107 39.30506679051834 6.988647362215524 3.3299650291236635 0 0 0
97 1 0.2831737646069162 41.22478111784295 8.29571539443689 3.4631067707148664 0 0 0
102 1 0.05844900403941072 41.40312860924065 8.868680597384468 1.076447271684692 0 0 0
108 1 -0.04157089980251954 41.93525160572979 8.918455951630698 2.3529338410609224 0 0 0
112 1 -0.1025907632294098 40.69653833805056 7.0998667105617566 3.2789701064715233 0 0 0
96 4 -0.5077536204078721 41.78325227235421 8.36499798109543 4.795548434634942 0 0 0
107 1 -0.06951334384835312 40.31559726091401 8.11153022785447 0.6212528779494603 0 0 0
114 1 0.02689126496903423 43.18211522913466 9.58355906210974 2.6368877565714524 0 0 0
117 1 0.02552576297020781 43.32763615437339 10.303704932951193 0.35755838554679714 0 0 0
105 1 -0.01343992077497598 39.115043025195064 8.874400215212862 0.1714967151775985 0 0 0
1268 1 0.4068454575566431 41.69336961802717 7.561543038452492 6.1262516336469135 0 0 0
1278 4 -0.4070616060604317 38.97389390247794 11.429399536453099 6.149971098814977 0 0 0
115 1 0.0006893953994566634 42.00556950302117 9.7357629017429 0.1636427420025264 0 0 0
116 2 0.06923976403858458 43.522057520926474 9.599465799691396 3.6669560272226596 0 0 0
109 1 -0.02522905212433868 43.828068578200565 10.322831764569715 1.6836866877633385 0 0 0
94 2 0.03052951876007011 44.723310168757706 10.908518144331692 1.8651409122154956 0 0 0
279 2 0.03202369375427773 13.288426598339072 17.52003498014878 4.969929821271282 0 0 0
255 2 0.0315577929626029 12.922184493912585 15.778791894012262 0.6533791543195849 0 0 0
260 4 -0.4700154079556337 13.473256842386416 15.548710562522714 3.865374468969137 0 0 0
267 1 0.1663693983597222 13.628156563356564 16.475589013006605 5.057628590207037 0 0 0
259 2 0.04298349470875435 14.163051718971968 13.538671192957725 3.1887687059407033 0 0 0
272 1 0.142955039920089 14.117411279258977 14.176614616823151 4.14005562349428 0 0 0
254 1 0.01528829678588719 16.63356751144809 16.034112688128012 1.6257723726138051 0 0 0
256 1 0.04562618069486048 17.044042414850963 17.45062429925 5.091994357915132 0 0 0
262 1 0.2287934730578751 14.626195169105614 13.834553575389473 5.342884607388827 0 0 0
263 1 -0.03622011405026609 15.412261541562419 16.905924396130008 2.1270243866703367 0 0 0
264 1 0.0412749870534425 17.483137527819405 14.921168565046813 4.162139662151763 0 0 0
265 1 0.06176365228467733 17.275298648887052 15.886617312909737 4.733904479316163 0 0 0
270 1 0.02549842079461455 17.6217912761618 13.911143050410542 3.133187335934163 0 0 0
271 1 -0.0001750625236863502 16.971380563297977 14.524227456153564 2.019809229048035 0 0 0
276 2 0.05855029554707413 15.146937356482143 16.72012585235871 3.1379533878790054 0 0 0
278 1 -0.005476389615184292 16.300055811931788 18.22097808578219 4.305677328218136 0 0 0
266 2 0.09882430800770123 14.502476024171555 16.650519370931498 1.4802368105522337 0 0 0
253 1 -0.04712294949141445 15.81332741561113 18.40272978673807 1.8437052230679003 0 0 0
274 1 0.03883971305052893 17.469148351801955 14.252049976972657 0.7217052135137657 0 0 0
269 2 0.05833908409249244 16.85629830758531 18.53282777030798 1.5191677729045505 0 0 0
268 1 0.1820756004588165 14.08643014325566 16.147022813656065 6.227875870787023 0 0 0
261 2 0.06685638176567996 15.115634122677127 18.784763651570604 1.1277168400516966 0 0 0
273 1 0.03248778674733216 17.038178702141156 15.777853246421532 0.27009642932118855 0 0 0
258 1 0.0357622209244393 18.70045805020454 13.55293306553362 0.8511517567736283 0 0 0
12033 1 0.04339660251213782 21.05948610165984 12.763762961581625 0.07367389039928507 0 0 1
257 1 0.01383945498624174 18.822138330683888 13.293325471560843 2.3631843284140452 0 0 0
239 2 0.1008289451007353 19.562192908706077 17.462622801872694 0.9312796235054777 0 0 0
236 1 -0.003822630770677655 23.702018467110598 12.990259957771062 2.5401439595123416 0 0 0
240 1 0.008190501986335245 22.73516977183867 13.132721488477001 3.574649960081646 0 0 0
242 4 -0.5198556263971975 19.991386170879856 18.11564956560331 4.501389913499598 0 0 0
229 1 -0.08182502856381474 20.89078750012209 13.374098591686888 5.656717550061669 0 0 0
230 1 -0.0865177251299314 21.753028881637327 16.703420476188466 3.1690268756379707 0 0 0
231 2 -0.007013445714647444 21.812978215451107 17.420003802188678 5.214852407406247 0 0 0
232 1 -0.06200982981886668 22.950598593190016 17.743113245641798 1.262159136565773 0 0 0
233 1 0.2663888726904102 21.148439760528397 14.446301994141358 4.875023772489587 0 0 0
234 4 -0.5216087012519789 20.571287086416685 15.769435869691334 5.207848576799678 0 0 0
235 1 0.05429456468807612 21.97540152178525 17.83799341451678 2.3554903354543253 0 0 0
237 1 -0.07976894570463675 22.036400988832742 14.336056066430327 3.7845360226669063 0 0 0
241 1 -0.02260200016506475 23.344367477714925 15.434751386717961 1.9215710523767418 0 0 0
244 1 -0.004498970614452328 23.94475020818968 14.137178603178828 1.7211763580184691 0 0 0
245 1 0.0472901365277377 23.649462565207052 16.550860157746847 1.1036065838353937 0 0 0
247 1 0.04979904954186844 22.364114319769772 15.456119955907974 2.9611034117785677 0 0 0
248 1 0.4527242548238372 21.03122481401392 17.026921820288717 4.481250816082053 0 0 0
251 1 0.02188460423470378 24.290778108913656 17.64338550781861 5.554718415923443 0 0 0
250 1 -0.02819192583247977 24.35282482848726 14.793744010874706 6.017702619977645 0 0 0
12034 1 -0.06576144012405023 24.625965345165937 16.45086985257586 0.05528196243068068 0 0 1
249 1 -0.01039708278332491 24.8500731977173 14.025485923221462 0.5909163304674888 0 0 0
246 1 0.02306956917339888 25.086386663854654 16.7366688633683 4.75808400085487 0 0 0
243 1 0.05005726683723248 25.108018675403617 15.327856194474665 4.936851826913678 0 0 0
223 1 -0.003066674091037363 25.647346204531182 17.263083783291407 3.511528984401126 0 0 0
214 4 -0.4425405963432993 27.73805350801832 12.944896948980068 2.3807451366019947 0 0 0
221 1 -0.004300691535147175 26.017709272566275 14.49828780867944 4.194407536113179 0 0 0
218 1 0.2004632320794183 26.140312097700157 13.104834878661384 4.393638178101766 0 0 0
206 1 0.2382515503164741 27.55469958197596 14.390218515946676 2.2569413149066313 0 0 0
208 2 0.02859870516878329 27.041395015647158 16.96805386398595 1.9348575823150806 0 0 0
213 2 0.06414793586386115 28.125135767142893 14.815289647798128 1.3536689986208261 0 0 0
216 1 -0.01335897493637068 26.529837093940444 16.51143361348383 2.7710703051148355 0 0 0
219 1 -0.05177044756829971 26.714805446794898 15.141461361844325 3.080325036939296 0 0 0
220 2 0.03495358395862609 31.262933374361523 14.661552499185708 0.18160902958734265 0 0 0
222 1 0.2377906077273348 30.19615231006669 17.863348728264977 5.364167970983416 0 0 0
215 4 -0.520615143431385 30.197472395225834 18.77817151236405 4.197424591494431 0 0 0
217 1 -0.1033837722684458 31.018547592565685 16.66715319236907 5.244619518152055 0 0 0
156 1 0.01119918260922001 25.462548894860024 12.733695113961453 0.35855819188824695 0 0 0
320 1 -0.006614867779389666 25.463961456080156 18.66425174770172 3.0858314814438494 0 0 0
314 1 0.6436229270338006 30.734330901466414 19.045197882202352 0.5906878557324612 0 0 0
305 2 0.01794418147425868 29.754162047943318 19.146525240376107 1.1005497475144603 0 0 0
127 2 0.06515562753636114 34.04388739069963 13.102704274857555 4.471730523650271 0 0 0
134 1 -0.08006216996921678 33.42876057129301 13.271036649284248 5.327067358428561 0 0 0
202 2 0.1007409064759363 31.55579368976135 17.00898679828518 3.2372722236758293 0 0 0
201 1 0.3024017694951555 31.697353710206336 16.361184276560838 4.1275652244899685 0 0 0
199 4 -0.483759708780546 32.49325151217939 15.16441150782915 3.988555088465203 0 0 0
122 1 0.2539773927571031 32.65871827763134 14.350188710457855 5.313082905737228 0 0 0
287 4 -0.5148161563154533 31.594361049223807 18.25930746948008 0.9736595657815243 0 0 0
1384 2 0.01574100685495567 47.07627156470222 15.314480476235978 6.013118043377575 0 0 0
347 2 0.02394115946520027 14.387339003824396 19.164711065487705 3.556133203455282 0 0 0
346 1 -0.01344760017255112 15.526313181389376 19.035800487805904 3.3456414395598277 0 0 0
350 1 -0.0324803819199556 16.286859350523983 20.50295668065368 3.2782437887839047 0 0 0
351 2 0.1060651183592642 17.06761528164923 20.515881706985958 2.4720229676960606 0 0 0
357 1 0.01400244981344531 14.936133479731234 22.057205536250514 4.6414836054818585 0 0 0
358 1 -0.0185610840273972 15.249103590060907 21.687980305715172 3.1236828102829284 0 0 0
359 2 0.04071876643606775 14.247291771231854 21.421415776445198 2.674169257439792 0 0 0
360 2 0.0953424878572364 15.775860536289967 22.46238585426675 2.6092736396533303 0 0 0
362 2 0.07637261620008544 16.816524067025394 20.577429278911513 4.215533369578697 0 0 0
356 2 0.03430701934485744 18.26842286187558 24.238065454322264 4.134574148533304 0 0 0
355 1 0.6285901867417337 18.481811510734588 23.127183978706313 3.983884170088034 0 0 0
354 4 -0.5959975957245282 18.246436282850805 22.31290088513563 4.873951492163466 0 0 0
352 4 -0.5526533612595661 18.38121181184316 19.797238818968847 0.3479787664057805 0 0 0
349 1 0.05009201437878991 14.726892945087164 22.31181828900637 5.69774733606997 0 0 0
12215 4 -0.5186760271220711 16.4687497520106 21.335958044398133 0.3745280672668426 0 0 1
361 2 0.1488317904025321 19.117023603593303 20.743821613345645 4.427610717907206 0 0 0
353 4 -0.547958170653644 19.30789681771187 22.847631156134987 2.7704766469473676 0 0 0
348 2 0.04773360708208014 19.14571589943233 23.124844393325986 0.5143118963896464 0 0 0
228 1 0.2701714960829776 23.281695249488422 18.84583227178241 0.4288549137361698 0 0 0
252 1 -0.07829207427487521 21.29175741105156 19.066345690252238 2.5343177971764357 0 0 0
343 1 -0.1219223154943648 19.73822640668297 20.464319210599495 3.5475966129633707 0 0 0
325 1 0.002962273499264327 24.11948225282878 18.980180093139964 5.097631955627865 0 0 0
226 1 0.2613242813893381 20.3072082645893 19.20784726863739 3.5029932816912046 0 0 0
340 1 0.229464648369082 20.024507436432504 21.486425296444875 2.599254460454055 0 0 0
327 1 -0.0146018501235202 22.844890859691784 22.895230669661455 3.5542892882030124 0 0 0
333 1 -0.0001889088437508032 22.806328941004633 21.22046382907939 5.278720048067368 0 0 0
334 1 -0.005973928998739974 23.309655956056243 21.671534936021665 4.087464696784332 0 0 0
335 1 0.2345581481981203 20.885674446033175 21.28286102055465 1.5817149015370544 0 0 0
336 1 0.02796778018788893 21.85135374140421 23.581565163495252 4.100637652448878 0 0 0
339 1 -0.004245913196704545 21.64197401362238 20.120061462517842 1.5885371460409834 0 0 0
341 2 0.06397502602292179 23.293010546347453 23.197637210109516 2.5628774696213577 0 0 0
332 1 -0.02851729653711058 21.327086213808638 23.2076097942997 5.364381852689128 0 0 0
326 1 0.1866125472920523 24.621203029442285 21.004225944330347 3.5814726601681897 0 0 0
342 1 -0.01914937384976695 24.675530468099836 19.443847507432857 3.835365497994387 0 0 0
330 1 0.0005740086817848221 22.66389688029862 20.01983775462101 0.6481919489273642 0 0 0
12179 2 0.1056250935252282 23.54507625880046 22.647583964431366 0.43571424329018615 0 0 1
331 1 0.03101914710642159 23.312144633520848 19.922928575108962 5.898336939267814 0 0 0
323 2 0.07297565614494458 21.52328695364607 24.58808572962556 3.6335053180282317 0 0 0
328 4 -0.5553606287639353 21.224963386464964 22.2968526007121 0.5301700731658271 0 0 0
12170 1 -0.01874568120541093 23.631939969136116 23.698478399255887 0.13186783079036016 0 0 1
12351 2 0.06908385641265918 22.67334918090121 24.297907760738745 0.28638360904687726 0 0 1
324 1 0.00365150798228557 21.687267061317563 21.87535777142236 5.947101010738431 0 0 0
322 1 0.226520412222781 20.404377220819313 24.00402878872803 6.110831796379105 0 0 0
329 4 -0.5753771043049547 24.820456456945887 21.385407853424415 2.071950585914007 0 0 0
317 2 0.0527624648550535 24.760304552312572 23.641452550656556 5.142168232589451 0 0 0
321 2 0.1008790863861874 22.878962306118414 20.85158722632099 56.45242637329905 0 0 -1
338 1 -0.03723760195729944 24.852837554287554 24.422735733425423 0.8429846763366183 0 0 0
211 2 -0.01699313974572499 28.16566468853969 19.68402987614995 4.199850981684144 0 0 0
337 2 0.07144571027469761 25.453711912327233 23.721091883133546 1.3890046277279287 0 0 0
207 1 0.6137256791842618 29.182608815082276 19.817556722248874 3.7134203741456226 0 0 0
480 2 0.03927845056982006 25.21708315085884 24.693710877884243 3.600740479646979 0 0 0
318 2 0.05027037272592628 25.540194845080837 21.43531868946918 4.08245463741958 0 0 0
312 2 0.04069166612257161 25.9405324724866 18.99770768146106 2.155776242007404 0 0 0
204 4 -0.5174493932230018 29.40538588072544 20.688949491604767 2.89357930081597 0 0 0
300 1 0.6381334108262686 26.262002857167225 21.14247535725387 1.7881573033637475 0 0 0
303 2 -0.04143940121022034 26.74483980249868 20.47433870633316 2.5797740251290153 0 0 0
304 4 -0.6106958870950984 27.412934476625583 22.924808689087545 4.728570811208186 0 0 0
299 4 -0.5615322429754622 26.74292290617577 21.387207418686906 0.6969734184634236 0 0 0
307 1 -0.03396086133562377 30.616722898632712 24.39846010030438 2.455527906117106 0 0 0
309 1 0.6158852516793178 27.572988067927398 21.91793670228616 5.396063856136393 0 0 0
302 1 -0.0493534055510422 28.51252137114011 23.83188076693465 1.3178428449588795 0 0 0
298 2 0.1075009191034504 29.048757471039586 22.84163015638196 1.3498648857058024 0 0 0
301 2 0.07858138179297873 30.893628235710267 23.424212083919304 2.1057952889053606 0 0 0
1474 2 0.04431586231016348 30.18471412331651 22.876409315227626 5.594084910877485 0 0 0
441 2 0.1032930016626889 28.973983414917488 24.09828981639261 3.9291879043626663 0 0 0
319 1 -0.03969930138729282 30.05670863744763 24.366942078990817 3.9578409929371037 0 0 0
313 2 0.06578985619393632 27.62164983289272 23.839456898663023 2.0052708339331504 0 0 0
310 2 -0.002376384626506042 28.547946076856963 21.30621643199105 5.224965618947792 0 0 0
285 1 -0.05036172720045111 30.817764977321545 23.33091541774631 4.80383807147757 0 0 0
297 2 0.03134348473658465 28.23259381925733 24.050532951296393 0.2359854325225107 0 0 0
345 2 0.01493233342647564 25.42673801100615 24.877422383352346 0.0488133879556623 0 0 0
442 1 -0.008348963130597971 29.432223117487414 25.05152815891075 1.634417413701406 0 0 0
1473 2 0.0397139939346382 31.708845982982428 23.818887306572332 5.289948500584546 0 0 0
295 2 0.0193866654849896 31.44618669784008 25.074040956935676 2.49591959936712 0 0 0
286 4 -0.5313603872927258 31.508768871134418 21.767043568968276 0.4416496408377624 0 0 0
282 2 0.05353482411890566 32.751865295412514 23.33087390122163 1.675217858660574 0 0 0