C700_000 slab +y

10582 atoms
4 atom types

0.000000 56.144225 xlo xhi
0.000000 156.098922 ylo yhi
0.000000 56.144226 zlo zhi

Masses

1 12.011
2 1.008
3 14.007
4 15.999

Atoms # charge

1 2 0.030456 19.330632 3.397381 5.754027
2 2 0.026767 17.214740 4.770146 5.744393
3 1 -0.016919 19.736987 4.169409 6.389360
4 1 0.000501 17.559174 5.424178 6.554155
5 1 0.025700 18.974306 5.267785 6.876205
6 2 0.029611 15.664320 6.230393 6.946138
7 2 0.027464 21.534908 2.372735 5.564199
8 2 0.035866 25.476666 5.325910 5.579213
9 1 -0.020128 25.570680 6.185135 6.281448
10 2 0.051632 23.102494 6.096207 5.141197
11 2 0.022602 23.576593 0.766162 6.252058
12 1 -0.021069 21.926692 3.035781 6.315748
13 2 0.020185 27.482454 4.444394 6.449900
14 1 -0.019012 23.913472 1.566082 6.832527
15 1 0.006176 21.078473 4.070590 6.791501
16 1 0.004341 23.149422 2.795512 6.990969
17 1 -0.010814 23.272539 6.940459 5.863857
18 2 0.011882 20.423442 9.729820 6.605466
19 2 0.027306 19.295256 13.697536 4.497480
20 1 -0.000641 26.123152 12.860777 6.742366
21 2 0.021093 21.127337 12.407834 3.545912
22 2 0.023747 21.312095 7.637336 5.515588
23 4 -0.439516 24.161235 7.125332 2.574705
24 2 0.059385 26.432901 7.155166 3.724554
25 1 0.008840 24.532529 7.128974 6.506645
26 1 0.002948 21.358944 13.733271 5.267174
27 1 0.006251 26.508986 13.509812 3.027735
28 1 -0.032337 21.764288 12.687217 4.375019
29 1 -0.011089 25.320943 13.451484 2.201063
30 1 0.314643 24.073372 8.297806 2.962713
31 1 0.005009 22.462010 9.092135 6.763490
32 1 0.010049 26.302229 8.203036 4.134862
33 1 0.014360 27.533996 12.521995 2.963261
34 1 0.004542 24.760449 10.248858 4.307142
35 1 -0.004653 23.526110 13.834738 6.448173
36 2 0.022624 25.147529 12.683740 1.427833
37 2 0.017166 22.944644 10.460710 3.123485
38 2 0.001208 23.154476 8.881375 2.544700
39 1 -0.031891 23.487752 10.885645 3.946855
40 1 0.003607 23.046507 12.056943 4.607771
41 1 -0.018713 22.222079 7.831407 6.018191
42 1 -0.007397 23.888708 12.653876 5.737742
43 1 -0.004395 25.211559 12.119061 5.832975
44 1 -0.048137 25.153259 8.939713 3.860383
45 1 0.000616 25.659339 10.899973 5.232229
46 1 0.002041 26.847815 10.134318 5.676613
47 2 0.023649 26.376868 11.327143 1.360487
48 1 -0.000288 27.246635 8.744077 5.050132
49 1 -0.007955 27.293805 11.370277 2.084886
50 1 -0.000104 27.796845 10.423522 6.584506
51 2 0.029775 28.048826 9.459463 1.511605
52 4 -0.519958 34.656505 12.341040 3.943799
53 2 0.020137 28.833740 7.074002 4.870534
54 1 0.005178 28.844762 13.494015 4.796974
55 1 -0.013267 28.133974 10.301361 2.161461
56 1 -0.014764 31.358370 9.157019 3.803490
57 1 0.003060 31.576535 10.304251 4.643451
58 2 0.030041 32.066046 8.309113 3.836940
59 1 0.014990 32.734691 10.363084 5.471684
60 2 0.008903 33.679896 13.105868 2.254202
61 1 0.002420 29.500616 11.337713 3.876864
62 1 0.004100 30.012557 13.544568 5.582381
63 1 -0.044831 34.702751 9.292499 6.489762
64 1 -0.024477 30.561139 8.101222 6.831438
65 1 0.001909 30.915983 12.476136 5.548740
66 2 0.022095 30.903309 7.221838 6.221662
67 1 0.016934 28.662045 12.487963 3.882183
68 1 0.005412 29.302741 10.163505 3.019459
69 2 0.021390 30.090587 8.178155 2.365968
70 1 0.001853 29.376429 8.608915 6.389424
71 1 -0.024562 28.502174 8.063706 5.335303
72 2 0.067676 33.565787 8.316634 4.977455
73 1 0.026163 32.995233 11.461660 6.299711
74 1 0.007938 32.066554 12.545545 6.284970
75 1 0.612894 33.982842 13.191985 3.365825
76 1 0.020853 33.683380 9.288693 5.570666
77 1 -0.019304 30.261859 9.107542 2.999445
78 1 0.003104 30.667544 11.407451 4.630577
79 4 -0.506627 35.336634 7.016767 5.822253
80 4 -0.519744 41.713097 13.445947 4.298234
81 4 -0.434705 38.713043 12.687381 6.823559
82 1 0.628289 35.421355 7.920617 6.679874
83 2 0.089122 38.149486 13.549128 3.354287
84 1 0.290858 37.791232 13.471868 6.441544
85 1 0.611077 37.181782 12.009914 1.772761
86 4 -0.466552 37.847170 11.070322 2.149631
87 4 -0.504145 36.322108 13.211168 1.252938
88 2 0.027711 37.114141 13.125027 5.590324
89 4 -0.497057 48.709566 12.293801 3.027254
90 1 0.572293 49.020829 12.444463 1.540293
91 1 -0.054145 48.443323 13.848495 5.031682
92 1 0.608362 42.879420 13.247340 3.999362
93 2 -0.004702 43.460693 12.472074 4.597402
94 1 0.256655 48.427902 13.602770 3.669841
95 2 0.079491 46.127269 13.081730 1.721447
96 2 0.038672 44.498258 13.751826 0.017446
97 4 -0.443580 49.067914 11.472466 0.794682
98 2 0.065716 48.780191 13.139433 5.798489
99 1 -0.003566 46.462225 13.851837 1.020352
100 2 -0.052478 49.382330 13.423122 1.203376
101 1 0.031207 12.730196 21.005187 2.888015
102 2 -0.012470 7.981862 20.941872 3.179762
103 2 0.021510 12.280011 20.906474 6.568443
104 2 0.031390 10.180709 17.452932 6.572492
105 2 0.083618 9.594062 19.785225 6.493539
106 1 -0.063929 12.179577 20.091107 1.877522
107 1 0.007311 13.207348 18.973251 1.519808
108 1 0.243863 10.833104 20.267850 1.495270
109 1 0.002325 16.010648 20.603631 7.013933
110 1 -0.005484 14.598862 19.102042 1.694197
111 1 0.000790 17.045477 18.569078 1.066425
112 2 0.096051 18.582696 15.874224 5.750011
113 2 0.028392 15.908535 20.489689 5.961290
114 1 0.017393 19.307789 20.885913 3.164409
115 1 0.012328 15.731214 18.148656 1.009011
116 1 0.021493 20.559747 16.197065 6.647156
117 1 -0.016119 19.998481 14.370143 5.113089
118 1 0.027487 18.861475 20.033990 2.161212
119 4 -0.547943 20.076927 18.186451 4.280764
120 1 -0.033394 19.816369 19.189940 1.515533
121 1 -0.000631 15.053863 20.234767 2.533575
122 1 0.033535 20.720069 20.991711 3.486303
123 1 0.005532 19.576472 15.481695 5.763737
124 1 -0.008085 18.179418 17.772571 0.193312
125 1 0.065395 19.323671 18.284090 0.749634
126 1 0.006873 17.477832 19.695799 1.957955
127 1 0.002889 16.482675 20.394312 2.720153
128 2 0.074568 16.809195 18.222754 6.296464
129 1 -0.006680 25.785186 15.501071 4.128846
130 1 0.010835 25.902869 16.581305 5.073396
131 1 -0.039674 24.867658 17.562801 5.247953
132 1 0.041121 25.007859 18.621512 6.164222
133 1 -0.015160 23.119162 20.404841 3.248765
134 1 0.030126 24.589936 15.413368 3.379003
135 2 0.060578 23.974034 18.333910 2.446580
136 2 0.069195 22.675244 16.160549 3.003256
137 2 0.077437 26.690430 20.763647 4.359119
138 1 -0.091947 23.543468 16.338327 3.644632
139 1 0.008320 26.819648 14.537354 3.997515
140 1 0.274588 23.646482 17.297560 4.542130
141 1 0.007012 27.987802 14.598455 4.775998
142 1 0.010317 21.835760 15.548933 6.987367
143 1 -0.020605 23.974227 19.537154 6.544949
144 4 -0.486271 22.198658 18.452235 1.336882
145 1 -0.001419 22.260867 14.459992 6.170641
146 1 0.337894 21.394551 19.275804 1.817976
147 1 -0.007454 26.323660 18.834172 6.740745
148 1 0.002063 27.376887 17.869973 6.615697
149 1 -0.021009 21.783369 20.236724 2.919979
150 2 0.112306 22.963846 19.458661 6.171709
151 2 0.039792 23.481387 14.363762 1.722809
152 1 -0.014230 24.340674 14.402514 2.365895
153 4 -0.528186 25.388469 19.683694 2.884587
154 2 -0.055076 21.278692 16.660997 3.685722
155 1 0.613145 21.160356 17.631747 4.160716
156 2 0.059137 28.048009 18.733465 3.512240
157 4 -0.597877 22.460667 18.132475 4.831379
158 1 -0.000464 27.179722 16.709188 5.726764
159 1 0.367359 24.184086 19.427569 2.758569
160 1 -0.002152 28.161089 15.718498 5.592243
161 1 0.003415 33.233275 19.587648 6.627458
162 1 0.046060 34.021341 16.629002 0.560057
163 1 -0.003160 29.991556 20.952068 5.399453
164 1 0.000771 31.214988 18.759069 4.931975
165 1 0.256799 31.390379 21.008978 1.200942
166 2 0.066053 29.218392 16.814326 2.920752
167 1 0.002368 30.082227 18.445292 4.123992
168 4 -0.620850 33.600933 14.559639 3.914461
169 4 -0.461563 30.191247 14.891469 1.977651
170 1 -0.052482 34.424688 16.121212 5.629580
171 1 -0.000363 29.349625 15.794522 6.389438
172 1 0.003374 30.198530 14.643466 6.403664
173 1 -0.001607 31.093539 20.026033 5.589281
174 1 0.021577 28.840572 20.422242 4.689803
175 1 -0.017733 28.904251 19.188404 4.025177
176 1 0.329407 31.103800 15.066475 2.817322
177 1 -0.022901 31.184887 16.373700 3.612984
178 1 -0.007018 33.224371 18.810622 1.449636
179 1 -0.004392 34.163807 17.725299 1.485428
180 1 0.006658 32.223687 17.883212 5.204669
181 1 -0.054620 32.336081 16.671371 4.414625
182 1 0.293422 33.423974 15.799362 4.695706
183 1 0.006597 34.321857 17.386245 6.277384
184 1 -0.007533 33.290562 18.314927 6.021201
185 1 0.008914 33.349746 20.008420 2.220706
186 1 -0.001959 32.232375 20.521591 6.276559
187 1 -0.003655 30.096589 17.161792 3.505420
188 1 -0.002730 34.468353 20.058341 3.086925
189 1 -0.064606 31.210787 19.859674 0.506439
190 1 0.020432 32.093283 18.766341 0.550452
191 2 0.037362 31.663877 14.149608 3.164594
192 1 0.020274 40.645070 18.067347 6.866328
193 1 0.035389 37.116236 20.846988 0.478237
194 1 -0.003837 36.503596 15.686391 6.722048
195 1 0.016968 41.167871 20.915888 4.763161
196 1 -0.071644 35.126935 15.755238 0.492429
197 1 -0.000907 35.245283 17.831168 2.365231
198 1 -0.007038 35.365786 18.928754 3.217994
199 1 -0.003751 35.997041 15.621609 1.617566
200 1 0.002789 38.332131 20.377471 2.640732
201 1 -0.000386 36.066270 16.743426 2.511108
202 1 -0.092820 37.664995 14.452091 2.967084
203 1 -0.019109 38.412639 17.824762 0.371802
204 1 -0.001130 35.493948 15.264450 5.864834
205 1 0.012788 40.137538 20.294844 4.068277
206 2 0.023379 40.177747 15.666791 0.625997
207 1 0.019867 37.882324 15.667725 3.687816
208 2 0.082537 41.065907 16.046559 6.321775
209 1 -0.001645 40.478424 17.392781 1.921478
210 1 -0.036755 38.930275 15.751617 4.591261
211 1 -0.008903 38.343761 17.960816 5.288303
212 1 0.274876 36.696504 14.448747 1.969647
213 1 -0.008367 39.721183 19.182709 6.877847
214 2 0.087524 39.569207 14.965323 4.812720
215 1 0.001780 36.561028 20.226298 4.924125
216 1 0.004347 39.262998 18.178939 1.464781
217 1 -0.001738 37.671510 20.232762 5.862739
218 1 0.004323 39.099988 19.227342 2.408958
219 1 -0.005470 36.399947 19.044751 4.123148
220 1 0.017684 40.254615 19.092685 3.297913
221 1 -0.016652 37.038479 16.789092 3.514321
222 1 -0.000114 38.584950 19.089783 6.038629
223 1 -0.017588 40.351913 16.871488 6.251759
224 1 0.007732 39.221708 16.878604 5.367689
225 1 -0.011585 40.752301 16.124449 1.386921
226 1 -0.003033 37.206717 17.935395 4.393386
227 1 0.032352 41.204361 18.134188 2.973989
228 2 0.099241 41.029259 14.203892 2.211755
229 2 0.075969 35.560952 14.291575 5.309239
230 1 -0.080724 41.603011 15.133787 2.067303
231 1 0.592828 44.340459 15.971592 5.816598
232 4 -0.580327 43.506342 16.875357 5.746198
233 4 -0.558235 42.843940 20.442459 1.783841
234 1 -0.005158 47.402467 17.381284 5.334590
235 1 -0.016732 47.387592 16.269087 0.940506
236 1 0.017718 47.353426 14.870086 1.505673
237 1 0.585952 43.951991 20.157251 2.207022
238 1 0.023358 47.181458 17.465526 1.655983
239 1 -0.011314 47.708996 19.620819 4.414090
240 2 0.064063 45.548004 17.831373 6.895787
241 4 -0.580376 43.645647 14.049147 2.955864
242 1 0.010263 47.394811 19.110833 3.147280
243 1 -0.000469 47.478884 18.611735 0.872609
244 1 0.010921 47.936723 16.348641 6.138247
245 2 0.075764 44.511254 16.354365 1.336627
246 1 -0.012233 48.638069 20.729696 1.760117
247 1 -0.008668 48.371970 20.900634 4.318737
248 1 -0.142741 43.590665 16.481601 2.010592
249 2 -0.051435 44.675147 20.825189 2.696412
250 1 -0.001338 42.560096 18.163630 3.397524
251 2 0.003216 44.517242 15.404776 4.869089
252 1 0.306752 43.583396 17.709925 2.448647
253 4 -0.589237 44.598167 18.749818 2.042546
254 1 0.025953 47.064604 17.744478 3.015932
255 1 -0.008189 47.610952 18.802837 5.544876
256 1 -0.002824 44.339720 19.515290 4.633341
257 1 -0.005897 47.202921 16.893705 4.042696
258 1 -0.025330 44.479522 20.810793 5.198288
259 1 0.314123 42.908441 15.229434 2.378328
260 1 0.005173 42.395378 20.352437 4.880865
261 1 0.071334 43.023209 19.218375 4.274719
262 1 0.008165 47.612799 15.598184 3.914691
263 1 -0.059257 47.952479 14.727912 2.851893
264 2 0.060841 45.203482 18.944564 4.361577
265 1 0.001646 47.785106 19.601661 1.838135
266 1 -0.006262 48.195126 19.127343 6.801861
267 1 0.013160 48.017299 15.229361 5.217341
268 4 -0.432641 6.159682 21.820919 3.121038
269 1 -0.026004 13.030644 27.992277 3.785938
270 4 -0.451870 8.482259 21.650920 6.376509
271 1 0.006681 13.774645 25.028105 1.568828
272 1 0.010917 13.791990 26.919403 3.144085
273 2 0.021399 12.055948 26.140169 2.008855
274 1 -0.035082 11.773695 21.951616 3.433814
275 1 -0.002559 13.278457 25.123954 5.873708
276 2 0.186931 9.021130 21.067189 1.448779
277 3 -0.533117 10.028654 21.132359 1.907942
278 2 0.047058 8.924586 26.919742 5.751497
279 2 0.023876 12.080310 24.072698 0.518517
280 1 0.001033 11.488937 24.018639 4.633812
281 1 -0.014395 13.795375 22.940403 0.125217
282 1 0.014157 11.012582 26.053079 6.050172
283 1 0.229929 9.532021 23.066566 3.432811
284 1 -0.024003 13.072237 26.046861 2.256117
285 1 0.594406 7.388700 21.908615 3.110837
286 4 -0.505647 8.151844 23.210132 2.932275
287 1 -0.030046 10.097826 24.029930 4.241896
288 1 -0.003184 12.341407 22.971505 4.229305
289 1 -0.005274 11.914094 25.011750 5.535070
290 1 -0.027085 11.439156 27.051172 6.929657
291 1 -0.003282 13.742672 26.131780 6.810552
292 1 -0.020923 9.629121 26.120218 5.447176
293 2 0.093955 8.176175 25.144112 4.279020
294 1 -0.007374 13.717307 23.078433 4.530837
295 1 0.167076 10.426227 22.043118 2.956660
296 1 0.026226 9.225397 25.112802 4.638817
297 1 -0.016152 13.170379 23.963451 0.745118
298 1 0.008032 17.308334 25.261731 6.996601
299 1 -0.003411 14.184551 24.234707 5.241353
300 1 -0.002069 14.633759 22.128749 3.973832
301 1 0.018553 18.374574 21.512670 4.009464
302 1 0.024478 19.571398 24.435142 6.873802
303 1 -0.007243 19.398278 24.456013 2.159409
304 1 0.008799 20.479059 23.580247 6.263834
305 1 0.020968 20.321019 27.062132 0.409556
306 1 -0.001649 17.314733 27.420892 4.444250
307 2 0.019143 15.217025 22.558838 6.921842
308 1 -0.007914 20.138175 23.493198 1.433675
309 1 -0.002527 17.968903 26.451290 3.638087
310 1 -0.001170 15.209352 24.916483 1.697425
311 1 0.001920 15.949732 25.153113 6.649219
312 1 -0.002636 19.384058 27.804874 5.685078
313 1 0.011673 15.908137 27.605762 4.179338
314 1 -0.004916 18.016055 24.604475 1.994587
315 1 -0.008452 19.442914 22.677612 0.573280
316 1 -0.008400 18.020090 22.749868 0.436634
317 1 0.010129 20.128127 22.674253 5.237606
318 1 -0.004608 16.040873 22.253546 4.183516
319 1 0.020941 17.818312 23.348012 5.539610
320 1 0.022985 18.214523 24.357045 6.411398
321 1 -0.002909 16.497768 23.288749 5.062732
322 1 -0.000789 15.579007 24.214184 5.653198
323 1 0.009722 18.807067 22.527155 4.910619
324 1 -0.002927 17.322227 23.707898 1.146306
325 1 -0.007058 20.079964 26.987982 4.815966
326 1 -0.002821 15.893343 23.840770 1.102079
327 1 -0.005945 20.023847 25.238251 3.150800
328 1 -0.001471 17.345232 25.665398 2.663773
329 1 -0.007247 19.371072 26.233182 3.863287
330 1 0.000861 15.225372 26.724854 3.316423
331 1 0.000955 15.952800 25.791653 2.512689
332 1 0.008718 18.996727 27.590538 0.669262
333 2 0.028732 18.122958 27.219871 0.129004
334 1 0.003909 16.964846 21.308694 3.722582
335 1 0.007136 15.269487 22.819333 0.255063
336 1 -0.009881 14.137319 21.155944 3.047385
337 1 0.007664 27.695622 22.474807 5.305794
338 2 0.047888 27.501975 24.331337 2.422181
339 1 -0.000858 25.747121 23.231065 1.752859
340 1 -0.001315 22.773095 22.852794 5.935579
341 1 -0.005918 26.514475 22.089620 1.117472
342 1 -0.005635 24.302088 23.334448 1.684166
343 1 0.032998 25.310686 26.080600 0.247786
344 1 0.010601 25.750599 26.825582 5.177788
345 1 0.010841 27.607069 27.391070 1.314426
346 1 0.008532 27.807275 25.222733 6.263935
347 1 -0.002070 22.451842 21.982387 4.910932
348 1 0.012992 25.695279 25.173196 3.313900
349 1 0.003792 26.550339 23.252391 5.493760
350 1 -0.010277 22.124146 24.360364 2.443417
351 1 0.000565 25.134873 27.121522 1.182504
352 1 -0.010392 21.485026 26.912572 4.968961
353 1 0.006334 26.290726 27.793940 1.692823
354 1 0.020016 21.101205 21.831779 4.613156
355 1 -0.021937 27.630802 21.220153 4.723788
356 1 -0.006939 22.163529 26.019627 4.204220
357 1 0.010483 23.869389 27.683637 1.436048
358 1 0.010729 27.709810 26.307802 0.413799
359 1 -0.005007 22.182525 27.709921 5.948205
360 1 -0.023726 26.623092 24.540095 6.044127
361 1 -0.008263 22.228843 22.588225 0.676171
362 1 -0.025245 26.378951 26.198948 4.113456
363 1 -0.002258 23.637680 27.684420 6.018184
364 1 -0.008577 24.230167 25.060632 3.425002
365 1 0.003795 24.119508 23.133663 6.281410
366 1 0.020537 22.772246 27.154410 0.734271
367 1 0.006784 21.488410 27.656248 1.010925
368 1 -0.009217 21.499014 23.462508 1.537481
369 1 0.001853 25.862905 21.272400 0.222023
370 1 -0.006696 23.630006 22.456336 0.753511
371 1 -0.007611 21.401954 25.185969 3.338731
372 2 0.053548 27.565607 22.003925 1.402692
373 1 -0.002114 23.578131 26.016218 4.197891
374 1 -0.002908 25.173801 22.736659 5.375463
375 2 0.019729 25.665908 25.037867 6.247816
376 1 -0.002474 26.511594 27.196418 6.415175
377 1 -0.007919 23.548361 24.285157 2.447586
378 1 0.000608 27.851649 26.594544 6.645702
379 1 -0.006895 24.268654 26.820666 5.131609
380 1 -0.016009 24.865897 21.999055 4.266441
381 1 0.006880 24.359244 21.383531 0.068065
382 2 0.112808 27.449987 26.275083 4.050826
383 1 -0.023570 26.415874 24.268993 2.448478
384 1 0.004983 21.844742 23.622349 6.630592
385 1 0.030595 23.544777 21.361609 4.163149
386 2 0.062706 25.572767 21.851401 3.456383
387 1 0.001334 30.144181 24.965569 6.835031
388 4 -0.488320 30.356802 22.134098 0.992877
389 1 -0.011136 34.029330 23.520286 4.446509
390 1 -0.053230 32.051450 24.560215 3.543239
391 1 -0.016167 31.741276 23.319461 2.879280
392 1 0.023751 33.248771 24.633165 4.322515
393 1 -0.001034 30.037627 22.215688 5.896578
394 4 -0.469862 29.763077 25.436638 2.918305
395 1 -0.050743 33.516573 25.820617 4.987689
396 1 0.271520 31.103256 25.625637 3.568933
397 1 0.230962 34.779452 26.009571 5.651754
398 1 0.182159 29.621102 24.233236 1.985615
399 2 0.017004 28.752524 24.156168 1.311067
400 1 -0.076782 31.313849 26.737687 4.326268
401 1 0.009342 28.944702 23.074007 5.713785
402 1 0.000085 34.630970 21.211763 3.843327
403 4 -0.494594 29.164004 27.690067 4.062720
404 1 0.031642 32.619620 22.223023 2.945111
405 1 0.174966 30.614458 23.282244 2.034140
406 1 -0.004129 32.665651 26.908866 4.916330
407 1 -0.000770 31.185271 22.708765 6.629247
408 1 0.409564 30.261787 27.748243 4.622892
409 1 -0.003907 32.214882 21.773022 6.921676
410 1 -0.006335 33.790815 22.362344 3.689501
411 1 0.006595 28.981531 24.366530 6.249535
412 1 -0.060953 29.863871 28.010151 0.799047
413 1 -0.061769 32.397118 21.104336 2.147807
414 3 -0.519155 35.136253 27.245263 6.151768
415 1 0.005181 35.212113 23.640824 5.192803
416 1 -0.055529 35.595165 24.844974 5.814034
417 1 -0.014876 37.173490 24.607828 0.704858
418 1 0.032983 36.801388 24.975008 6.513662
419 1 0.004754 41.742819 26.291779 4.965995
420 1 0.003862 41.743451 24.881245 5.140772
421 1 0.000658 37.565471 25.376322 1.830215
422 1 0.003285 37.210825 22.615098 6.176756
423 1 -0.009027 37.601620 23.826838 6.754928
424 1 0.011720 39.119890 22.561118 3.883833
425 1 0.004983 38.239932 27.617669 0.734534
426 1 0.003743 41.172322 22.239981 5.133413
427 1 0.003392 40.073837 23.082514 4.802739
428 1 0.009126 37.734665 22.509939 1.985173
429 1 -0.002073 36.002138 22.532856 5.433408
430 1 0.002353 40.421209 26.679113 4.579156
431 1 0.014429 38.636773 26.912132 3.137152
432 1 0.000264 38.011102 24.696169 3.007356
433 1 0.002887 38.289377 23.230200 3.023541
434 1 0.002361 38.143580 26.693406 1.809666
435 1 0.000642 40.425554 24.435573 4.918254
436 1 0.002489 39.587730 25.521304 4.716276
437 1 0.005608 38.535834 25.692830 3.802080
438 1 0.000108 37.261817 23.202849 0.873540
439 1 -0.003557 37.700096 21.169107 1.721670
440 1 -0.003265 39.909925 27.431892 3.446239
441 1 0.000151 37.967889 21.458850 6.446123
442 1 0.001621 35.734162 21.308749 4.720286
443 1 0.008818 39.083843 21.151394 3.636094
444 1 0.225448 36.370221 27.399492 6.801386
445 1 -0.002476 42.494280 22.639430 5.549957
446 1 0.024862 47.393297 27.563251 1.422201
447 1 0.005778 46.126288 27.378510 2.398316
448 1 -0.001980 42.856540 27.307973 4.990525
449 1 0.010535 42.852325 24.078574 5.628658
450 1 0.036849 48.793423 21.552611 6.666703
451 2 0.027478 44.718309 27.919603 6.000911
452 1 0.006104 44.001640 27.123939 5.802156
453 1 -0.016909 48.110001 27.015677 6.490119
454 2 0.029975 44.947780 23.718871 6.073846
455 1 -0.012918 44.204813 24.497191 5.895744
456 2 0.039682 45.658979 26.038974 6.386267
457 1 0.022255 44.596162 25.817283 6.033183
458 1 0.030880 47.801053 26.364760 1.181814
459 1 0.070278 47.824150 25.031025 1.317922
460 2 0.020176 44.812982 25.909768 3.265880
461 1 0.019476 46.545781 24.906311 2.483853
462 1 0.008564 43.189965 21.379515 5.318208
463 1 -0.021666 45.759140 26.065593 2.774909
464 1 0.010761 46.050076 23.722419 2.884648
465 2 0.037295 46.063842 22.596832 2.854571
466 2 0.023474 45.443437 21.238512 5.271076
467 1 0.002965 48.902956 21.766124 5.290852
468 1 -0.002637 48.866995 21.309836 3.060798
469 2 0.093138 48.359293 26.072070 6.058522
470 1 0.017601 50.057423 22.656423 5.194662
471 1 0.016640 49.520827 21.284647 0.723025
472 2 0.004983 49.415910 26.805380 4.329164
473 1 0.002085 49.781794 22.386625 2.839500
474 2 0.019520 53.367977 25.081796 6.365398
475 1 0.032050 50.704149 22.746422 6.406671
476 1 -0.015903 51.831501 24.023055 2.104091
477 1 0.255829 49.164477 27.878455 4.510701
478 1 -0.044176 52.014598 23.359771 6.641343
479 2 0.026664 52.635927 24.694571 1.750590
480 1 -0.014151 52.455009 24.567411 4.460441
481 1 -0.008934 51.202719 23.277320 1.080017
482 2 0.036124 51.494708 23.338280 0.049864
483 2 0.028103 52.999150 25.378703 3.946748
484 1 0.002302 50.249165 22.301289 1.455799
485 1 -0.006545 50.561417 22.907049 3.880996
486 1 -0.006119 52.662017 24.421408 5.831187
487 1 0.007081 51.586615 23.859182 3.499765
488 2 0.014997 11.975903 28.161197 3.670470
489 2 0.016766 11.959124 28.389451 1.488036
490 2 0.019743 11.910094 29.833261 5.590502
491 1 0.011919 13.763665 28.687599 4.834399
492 1 -0.014012 13.008683 29.643947 5.697074
493 1 -0.009289 13.359767 29.975755 1.153910
494 1 -0.017871 12.575870 28.903261 0.780613
495 1 -0.010437 13.685113 30.317305 6.656339
496 2 0.044978 13.418130 30.313183 2.203830
497 1 -0.015254 20.086559 28.544083 6.680150
498 1 -0.007717 20.081296 29.280981 2.145337
499 1 0.005559 19.468616 31.974515 5.291938
500 2 0.068351 14.625504 32.177934 1.520418
501 2 0.069514 19.339059 32.760629 6.115448
502 2 0.046002 15.471378 34.114445 0.783113
503 2 -0.056172 14.840242 32.993649 5.592534
504 1 -0.001062 14.645535 31.910665 0.431257
505 4 -0.547425 17.020334 33.314436 5.836030
506 1 0.013082 15.210412 28.469284 5.041060
507 1 0.004032 15.922540 29.205777 6.019231
508 1 0.586051 15.574660 33.507165 6.295765
509 1 0.019294 14.046247 30.689847 0.122485
510 1 0.036583 18.875168 28.644009 1.540833
511 1 0.022031 18.418760 31.622294 4.457100
512 1 0.001186 17.272247 29.047240 6.236149
513 1 0.174721 17.090877 32.273204 4.685720
514 2 -0.028573 19.349594 31.459514 0.132230
515 1 -0.053274 18.584261 30.763640 3.317905
516 1 0.166015 16.027146 32.014201 3.922277
517 2 0.020870 14.978547 32.424825 4.100532
518 4 -0.500397 16.049834 30.909419 2.874674
519 1 0.238381 17.471374 30.334809 2.592959
520 2 0.053119 16.650667 28.796788 1.392954
521 1 0.003763 15.147516 30.104727 6.849573
522 1 0.016462 20.831722 31.579395 5.029230
523 1 0.025450 19.912293 30.365730 2.984836
524 1 0.028873 21.017712 30.772628 3.812149
525 1 -0.004298 18.016878 28.042707 5.443960
526 1 -0.054695 17.613516 29.229323 1.777107
527 2 0.032121 21.112841 34.399496 6.517284
528 2 0.014936 22.220799 30.358691 0.376984
529 2 -0.058014 21.798018 34.138172 5.005617
530 1 0.008205 21.339893 28.731616 1.838449
531 2 0.027182 24.723223 34.730996 4.235033
532 4 -0.532210 21.312789 33.718925 3.093296
533 1 0.001291 21.486015 28.532998 6.817859
534 1 0.000166 22.332483 30.243735 3.584943
535 1 -0.002984 23.727227 32.728655 0.590976
536 1 0.031251 27.299220 29.678032 2.876912
537 1 0.002990 23.391849 30.849336 4.263387
538 1 0.002769 25.849293 31.118114 4.277853
539 1 0.003447 24.868085 29.348689 2.949470
540 1 0.007869 24.846380 33.327805 1.188532
541 1 0.033499 22.490277 33.273240 0.154214
542 1 0.014330 25.540370 31.394312 0.089539
543 1 -0.014276 24.154850 31.502470 0.055107
544 1 0.024592 22.084709 34.649506 0.174144
545 2 0.014320 26.723901 34.046318 6.048823
546 1 -0.005971 24.285385 33.765513 6.734402
547 1 -0.011039 26.861965 33.124523 5.457286
548 1 -0.009832 21.917080 32.060297 5.768756
549 1 -0.000490 23.704857 28.671929 2.444816
550 1 -0.003861 25.009073 34.600854 1.526203
551 1 0.002649 25.696146 32.266324 5.190406
552 1 -0.001784 27.291679 32.945546 0.979324
553 1 0.003578 26.160692 28.961013 2.511884
554 2 0.027647 21.638754 32.758288 6.654155
555 1 -0.003650 22.423939 29.258049 2.563931
556 1 -0.008605 25.923204 32.567968 0.792049
557 2 -0.010757 27.213307 29.277630 6.509280
558 1 -0.001405 24.421741 32.611424 5.809674
559 1 -0.006884 27.119399 30.728106 3.811452
560 1 -0.006657 24.694387 30.476611 3.812087
561 1 0.014481 23.232990 31.845668 5.340582
562 1 -0.006153 27.486813 34.271765 1.503879
563 1 0.595937 21.279055 34.490186 4.079943
564 1 -0.001760 30.062142 34.448965 1.177190
565 1 0.011088 30.377226 33.120344 0.934596
566 1 0.641249 32.859287 30.462211 4.401974
567 4 -0.528894 34.041585 30.554675 4.130377
568 1 0.098064 28.735016 28.267005 1.543101
569 1 -0.061844 33.767942 34.524317 6.375122
570 1 0.006348 29.510788 32.092891 0.591952
571 1 0.183429 34.276101 28.339026 6.039376
572 1 0.001537 34.685493 29.607986 6.657873
573 1 -0.013032 28.159362 31.998218 0.514688
574 1 0.259442 34.008200 34.341973 5.017539
575 2 -0.016152 32.220659 31.367411 4.222734
576 2 0.068993 30.482619 31.945036 3.800258
577 2 0.045128 34.282789 33.368372 4.609025
578 1 0.262465 30.961180 28.893159 0.957575
579 1 0.016526 28.272621 31.588735 4.125131
580 2 0.133592 32.923684 29.481421 0.377951
581 1 0.253194 33.109257 28.194276 5.277544
582 1 -0.057307 29.541166 31.286940 3.570778
583 2 0.050217 29.003324 33.439205 5.112139
584 1 -0.043039 32.067260 28.770576 0.202969
585 2 -0.043108 29.604376 30.982022 6.496060
586 1 -0.006149 28.756545 34.922568 1.445438
587 1 -0.039420 28.562421 29.465667 2.260317
588 4 -0.497984 30.972702 29.998280 1.961383
589 2 0.054118 34.054689 30.480214 6.691976
590 1 0.268783 29.648675 30.286094 2.656034
591 2 0.030397 30.317803 28.438811 5.525132
592 2 0.035669 33.960669 32.399422 6.863686
593 4 -0.603252 32.165981 29.303141 5.087323
594 1 -0.017959 28.073533 32.835846 4.858071
595 1 0.024484 31.525435 32.977344 0.097422
596 2 0.037776 38.696592 29.563318 0.046464
597 2 0.031521 42.069865 29.195290 6.405827
598 1 -0.012885 38.977908 28.864637 0.823731
599 1 0.000021 40.590488 28.513739 2.758154
600 1 -0.013969 40.011932 29.282968 1.673262
601 1 -0.018492 41.808404 29.129616 3.378100
602 2 0.025612 40.473504 30.252447 1.426065
603 1 -0.002414 48.558647 32.953641 4.691726
604 1 -0.068537 48.504328 30.490619 5.114442
605 1 0.011053 43.015505 34.963493 6.396357
606 1 0.041353 48.066643 29.457391 5.992373
607 2 0.016990 44.773894 30.897111 5.699005
608 1 0.005656 47.450623 34.607102 6.104072
609 1 -0.001509 47.013476 30.100023 1.549908
610 1 -0.008001 47.466853 32.098048 6.669350
611 1 0.008943 42.750241 33.491053 6.610494
612 2 0.013319 44.890852 28.528657 3.743129
613 1 0.022852 47.804659 28.967450 0.951403
614 1 0.002239 44.213109 32.196768 0.170799
615 4 -0.565902 42.162759 34.796000 2.676976
616 2 0.041216 48.543028 34.995172 4.164600
617 1 0.001691 48.441073 31.737029 0.409679
618 2 0.011529 43.481791 28.961909 1.443779
619 1 0.038558 48.165120 34.128577 0.445872
620 1 -0.027260 45.628889 28.518625 2.960743
621 1 -0.018466 43.685069 31.141586 1.047689
622 1 -0.019216 45.711005 32.313870 2.808926
623 1 -0.029755 48.177388 34.267957 4.901733
624 1 -0.023567 42.690326 28.616566 4.332395
625 2 0.029845 43.073622 31.420531 1.923190
626 1 -0.005671 43.663009 32.722033 5.805364
627 1 -0.023375 43.942609 29.789228 0.805155
628 2 0.018398 42.235736 30.119414 3.065950
629 2 0.115356 43.235818 33.792256 1.280841
630 2 0.014127 43.424792 29.362239 4.512513
631 1 -0.000981 43.912815 33.527983 0.457267
632 1 -0.022293 43.939721 31.382439 6.218968
633 1 -0.001223 47.282812 31.469268 1.181124
634 1 -0.010214 47.104006 33.493704 6.970075
635 1 0.002301 45.968682 29.834568 2.482963
636 1 -0.063616 47.258891 33.923339 1.546449
637 2 0.015936 44.454147 30.853864 3.776127
638 1 0.013202 46.700167 32.651553 1.783246
639 2 0.028089 45.219937 33.189380 3.349413
640 1 -0.018564 45.279280 31.042242 3.036396
641 1 0.006451 48.152913 31.837020 5.485160
642 1 -0.073817 48.446481 28.153208 5.623991
643 2 0.027816 44.256268 33.251288 5.045976
644 2 -0.002366 45.982811 34.900310 3.201400
645 1 -0.007992 49.414888 32.664613 3.591019
646 1 -0.053601 49.772825 31.382537 3.265163
647 2 0.026477 49.848172 33.499626 3.001754
648 2 0.059745 50.343136 31.210292 2.303268
649 4 -0.503967 49.626040 28.849245 3.521617
650 1 0.251735 49.273314 30.264370 3.963430
651 1 0.000481 12.919304 41.941342 3.143748
652 1 -0.057943 10.269099 42.049718 4.168408
653 1 0.039433 11.010926 40.833673 4.195265
654 4 -0.497033 8.309960 40.901074 5.295626
655 2 0.354851 13.379311 41.428236 0.621504
656 1 0.009485 12.329335 40.804647 3.742225
657 1 -0.057379 13.061625 39.612541 3.991331
658 1 -0.065898 11.193425 38.426269 4.838118
659 2 0.010287 8.589849 38.720891 5.700881
660 1 -0.048325 10.385841 39.669137 4.722101
661 4 -0.490918 13.297005 37.150751 4.649644
662 1 0.255345 9.112107 39.689423 5.316220
663 1 0.271379 12.492275 38.395017 4.525683
664 2 0.066345 10.744413 37.533798 5.212292
665 1 0.009935 18.423662 42.036198 2.000435
666 1 -0.005229 14.307130 42.009360 2.894119
667 1 0.000777 17.026611 42.053061 2.350287
668 2 0.017864 15.675395 38.217364 6.757584
669 2 -0.002997 14.299936 36.535618 1.845396
670 1 0.043151 14.452994 39.703196 3.710942
671 1 0.585066 14.609933 36.233144 0.795702
672 1 0.247589 14.793001 37.374193 4.553238
673 2 0.009598 14.245559 40.158560 6.512950
674 1 -0.008359 17.583051 37.745361 4.494639