LAMMPS data file via write_data, version 19 Nov 2024, timestep = 3863513, units = real

12647 atoms
4 atom types

0 156.508559 xlo xhi
0 56.53285 ylo yhi
0 56.53285 zlo zhi

Masses

1 12.011
2 1.008
3 14.007
4 15.999

Atoms # charge/kk

10 2 0.06413512064756753 17.72263482649246 1.8123708506069582 2.8902193003717276 0 0 0
9 4 -0.4785749481817712 17.220059443266724 6.24885446199756 1.3503888505485062 0 0 0
15 2 0.06147388820189583 17.54280049170821 3.949824967810798 2.6128486144037075 0 0 0
1123 2 0.07761364386791217 14.753524667162514 5.296303556749623 5.749369963704076 0 0 0
5 1 0.2511081872263951 15.09962088005714 4.24420666374459 5.75264729827779 0 0 0
2 2 0.001764173399155766 14.594541105811045 3.3925075392729864 5.275957664260714 0 0 0
11 1 0.2357229625543272 18.089002804943874 5.660599555888925 0.31372313265721047 0 0 0
12635 4 -0.5998280616887419 18.14689422148841 2.307631686000516 0.26526690820484344 0 1 1
16 2 0.04505295777624563 18.232534180542746 2.2885152951966754 4.579467498960435 0 0 0
27 1 -0.08267577280103824 18.520625090996408 2.283218179578954 3.4978132365734584 0 0 0
31 1 -0.001384281137419086 18.549231425450955 3.8114188897785297 3.0053929398470696 0 0 0
8 2 0.03632521311532346 15.818347195275056 4.4006748354193 1.082949364631847 0 0 0
23 2 0.08055833876547164 18.525920572203468 4.241710916493266 5.244451829765045 0 0 0
33 2 0.0743613534829632 18.35436267275658 5.590938778171091 4.14145662390107 0 0 0
2405 2 0.04684164454230968 16.235185864474197 0.9958749581725032 5.355416393788838 0 1 0
4 1 -0.05637346749927636 16.687401884328235 0.10140170258860647 5.787370056805433 0 0 0
7 1 0.3978759342344119 16.31733524464448 4.061823645619018 0.14356701625855425 0 0 0
22 1 -0.05725838616132491 18.8675309147834 4.637465678697307 4.304158453852468 0 0 0
29 2 0.0915628592189372 19.29301876888908 3.9226475779850536 2.160144106770483 0 0 0
32 2 0.06201072115908778 19.967229195555763 4.745847147472961 4.338515232285839 0 0 0
19 1 0.2321904695716792 22.1522412032608 1.5449123918624328 2.0595096160079684 0 0 0
25 1 0.2614022620100582 19.86312117167022 1.6081815009662768 3.2728893886057553 0 0 0
34 1 0.003958475126749861 22.906978226998863 2.037100962241605 1.1821981807716946 0 0 0
35 4 -0.5304655843719958 22.738077722467494 5.069574499570545 2.603042458740441 0 0 0
36 4 -0.4978114317892995 20.945817356144023 2.3929698267477844 2.618724301573911 0 0 0
24 1 -0.1141062778073483 24.03853409679969 1.26005470400836 0.6415153079032914 0 0 0
26 2 0.1152313650662439 22.847686609861274 3.0855444789494113 4.216912166899201 0 0 0
1152 1 0.01600652285881962 22.28723705722792 3.632507170010406 4.970968016207764 0 0 0
2428 2 0.1024009902085862 22.238670050004426 4.7131831945380585 5.039352868951783 0 1 0
21 2 0.1034910306636969 22.714340922325082 3.022271796785647 0.7565060450726615 0 0 0
18 1 -0.07568734466283808 20.095786459651567 0.39895770037417905 3.687574127265337 0 0 0
20 2 0.0980469348962807 24.383396597456752 1.7966335776389786 5.3866601943115775 0 0 0
1165 1 0.01996986417553141 21.786035392552694 3.07692000865029 5.972406384413424 0 0 0
30 1 0.5998414092001226 21.989502763262152 6.0470562677930655 2.7867011037808016 0 0 0
28 2 -0.04948681539317198 21.04358040470382 6.09028945954514 2.153497089542859 0 0 0
1012 1 -0.03977362532197206 22.369136193413883 0.2020213868013256 2.652139876324682 0 1 0
1009 1 0.1003004416846974 24.50609817435487 0.27890233733428554 1.4626065711662366 0 1 0
37 2 0.07233135502769032 24.717967828325772 5.552892367697704 4.663855923164951 0 0 0
50 2 0.4111365447851008 24.7304397821566 4.792896464863687 2.0770521590936606 0 0 0
38 1 0.2496152125777302 25.111159742727107 5.453078688671146 5.733150487107291 0 0 0
42 4 -0.5562436145888683 25.309794272302298 2.488487676241574 2.4830357316899696 0 0 0
44 2 -0.01188442644685948 27.19019121910512 3.3019043419660776 2.4388162940089533 0 0 0
55 1 0.6429080041413457 26.096966610475036 3.4177762232913773 2.3007209054179967 0 0 0
49 4 -0.6920302426082646 25.711611285937 4.859291336594394 2.116666190178067 0 0 0
45 1 0.001171063305102063 27.772938511339934 1.3818471221339876 5.153593034010035 0 0 0
57 1 0.04680671513378239 28.094748940890913 2.6164231765102794 4.853660466179094 0 0 0
41 1 0.6536289195558018 29.46796148674695 2.7294465594504924 1.9650649464291658 0 0 0
40 1 0.04922603323756457 28.49164341726711 3.7869147025219547 5.208393146315806 0 0 0
43 2 -0.0003519288479823496 28.89871913276932 3.613663098131931 2.3551835693189114 0 0 0
1018 4 -0.5554604743027529 28.863413940417534 1.6596695333264384 1.804843856968905 0 1 0
2462 2 -0.03017890011723594 30.39019235324663 0.9714321622424025 5.954488967500379 0 1 0
56 1 0.4157888378188831 28.566306220598936 6.054738870463583 0.8039733672088004 0 0 0
48 2 0.05453248588528769 27.832644431675366 5.947487172468096 1.661228858451728 0 0 0
51 4 -0.5325473787725202 29.89331636218308 6.167128131840403 1.617961413188571 0 0 0
46 4 -0.5019507126094239 28.458426858073285 4.701516978673874 0.11544297605496757 0 0 0
53 4 -0.5262772364303763 30.99450616167525 2.8767093338778307 1.8308223770332506 0 0 0
12642 1 0.2799155601555405 26.579766771453365 0.31647868870750645 0.09862994069705348 0 1 1
54 2 0.05597990599597678 27.341478317603812 0.5825765335325213 4.4836159474096355 0 0 0
12641 1 -0.02413258537547897 27.939001182228115 56.451411962857215 56.51139984905215 0 0 0
1194 1 0.5728737655211553 31.340495168960636 1.5092968210043245 5.711047399261774 0 0 0
39 4 -0.5408232522777918 31.23316941312238 2.42488668622682 4.457285933527626 0 0 0
64 2 0.05600242990088638 31.44982165418932 5.361501618678621 3.0942067763023333 0 0 0
65 1 0.3176459818906171 32.46682221541723 3.0616504670471305 1.812375997390266 0 0 0
66 1 -0.03944014991612885 33.093206964649305 3.011694401863357 0.5505935271800322 0 0 0
69 1 0.04382576198946581 35.16423076734815 4.458244130214317 4.169271100308349 0 0 0
73 1 -0.09258073083226882 33.12868242100458 3.386730618128314 3.045116179700825 0 0 0
74 1 0.04461568263263884 34.517367111155174 3.81039599969517 3.075992265658667 0 0 0
75 1 -0.02097934865337606 34.59241520290982 3.2307032870736947 0.7193536124949216 0 0 0
76 1 -0.02125718251452631 35.250753632837075 3.6929477787713845 1.933521831497493 0 0 0
70 1 0.3350088184058035 32.44547675955727 3.235731860524752 4.307937818101625 0 0 0
1208 1 0.06319200147248012 34.41570333065055 4.473349061127737 5.307520336040756 0 0 0
1207 1 -0.04677660096997689 33.13190292903549 3.8229573120971705 5.402238871856312 0 0 0
77 1 0.04088705090157737 36.40068767074718 5.153610707932207 4.056332770326925 0 0 0
78 1 -0.009099810654135568 36.565440932444425 4.382983144035392 1.8190498955994179 0 0 0
1045 2 0.01600826333748973 35.471949222766 0.832398429885073 1.8872258250940936 0 1 0
1057 1 -0.02872943462317251 35.00595333168187 0.8055426927110717 4.691426144641924 0 1 0
79 1 0.003485324758129463 37.172509525388044 5.101536700339199 2.9047380075678784 0 0 0
1044 1 -0.08329285311657214 34.465221337466055 0.38185405637322006 1.75471836547242 0 1 0
71 4 -0.5506474877317334 33.520816820708134 6.058441427884567 3.206301264437189 0 0 0
67 1 0.4968192710198793 32.02048431202956 6.293000239225591 3.3267791846522385 0 0 0
63 2 0.02851559497570333 34.85417119873343 1.647509475323263 3.9537400581145676 0 0 0
68 1 0.01432745516717475 37.00576942183996 5.910822262287527 5.127853911166312 0 0 0
12645 1 0.2035424654417481 33.78921305761026 0.30801788172186556 0.6902652642506439 0 1 1
62 2 0.1293010400272538 34.87364327263335 1.1513248562848484 5.734554974864493 0 0 0
8914 4 -0.4999065124199386 37.2043444220356 2.7119917077738136 5.642134956072178 0 1 1
1047 2 0.06673373404068307 36.03657464155026 0.40263551231595907 4.545623459195303 0 1 0
80 1 -0.00506435583904618 37.45593881543233 4.185325354527319 0.6277423389741973 0 0 0
1081 2 0.03676980104767985 38.25228105782252 1.924117880591979 2.6580180445995882 0 1 0
1077 2 0.09620662974196413 39.644790576094174 2.9678070045559197 3.131604946507175 0 1 0
1078 2 0.06190197408891333 39.86702400788366 1.7803063772010013 1.88287133307848 0 1 0
1087 4 -0.5076953767498759 41.85697509029311 3.7178012681254797 3.7480813498929395 0 1 0
1086 1 0.206004929567227 41.54409002919591 2.5361656728184503 4.563479655160825 0 1 0
2519 1 0.5804711907593091 42.63262628492061 4.283896730323352 4.951597478137698 0 1 0
1068 1 -0.05725890747133611 39.3158751704474 1.9831048628222203 2.844634244444881 0 1 0
2494 1 0.1890825975388362 40.843844541634226 1.3355995260024458 4.866552300809461 0 1 0
1073 1 -0.0151882624459086 39.770833132077705 1.0278979267334032 3.9846265154792606 0 1 0
83 1 -0.06344264698121523 38.78193480512681 4.758884208380233 0.40702477207137966 0 0 0
1222 2 0.005916265336067397 42.607725918660826 3.6616023080549613 5.964580396775208 0 0 0
1219 4 -0.4969225648395416 43.34639320595596 5.2798412842567135 4.91251399065731 0 0 0
87 1 0.001840858291130203 38.5928876973636 5.5588349649383915 2.7729687441087707 0 0 0
89 1 0.0440391154052718 39.301599947355825 5.416623419369651 1.5798857732679776 0 0 0
86 1 0.269897925384439 41.50081288571291 5.615669394096684 0.44028180838704506 0 0 0
91 1 -0.04217936690415999 40.687942968231305 5.828948400961834 1.588380388539897 0 0 0
90 1 0.02595543083415961 39.09799649983853 6.23577222251168 3.889860423429201 0 0 0
11928 1 -0.0524631246894998 42.82275029039566 5.9651791193167085 0.4821955432558447 0 0 1
2508 4 -0.5461618204177411 40.92962370832635 0.6355491322515131 6.278767639572143 0 1 0
1076 2 0.04072036010142675 39.0989083506364 0.4364754837750047 1.4535995185705137 0 1 0
94 2 0.03231007068218822 12.348541815205591 12.232354512171979 2.8888461214918597 0 0 0
12 2 0.0658715187213464 14.388764900816993 6.74875336903593 2.6831849099948712 0 0 0
95 1 0.02867289972231785 17.953583262462956 8.666257074341404 3.8928039230894114 0 0 0
96 4 -0.5125093984534611 15.66752959473718 10.138124761469726 5.6826239884515966 0 0 0
97 1 0.2911964241914 16.042791614844273 10.045674153863883 4.294192745814516 0 0 0
101 1 0.2055496286269824 15.69109762190779 7.8602976439228485 3.9147285642533016 0 0 0
102 1 0.05735470447398496 15.889705113276573 10.733762751128909 2.0083450645090988 0 0 0
103 4 -0.5015061795712032 15.14467176306289 7.30040945072163 5.224561317614106 0 0 0
104 4 -0.4523794823650111 15.394592489428845 8.233941692162398 1.5477227602864538 0 0 0
105 1 -0.01024331896128226 18.09968665254123 10.77973417990648 1.0041301302061587 0 0 0
106 1 0.2230484009268901 16.805361515292002 8.682981789605 1.4623194324745652 0 0 0
107 1 -0.06714730893334499 16.981854698771873 10.009110768724442 1.507353794729376 0 0 0
108 1 -0.05341143139080494 15.278139658026703 10.68132386328899 3.269139298461082 0 0 0
112 1 -0.1180467887607319 16.579262629590936 8.88118227250544 3.880888213595616 0 0 0
113 1 0.1362892418157331 17.860249676249214 7.702022886813459 1.3658187609340673 0 0 0
114 1 0.02522584045748201 14.021262292118879 11.169652152279003 3.546948017720619 0 0 0
115 1 -0.003258773783140118 15.272334915601848 11.642527545085771 1.1692322747101145 0 0 0
116 2 0.06487554795999313 13.652825950997576 11.030335928453926 4.552203921339386 0 0 0
118 1 0.2112009170407409 15.174171771508297 7.524901705821156 2.819684417115196 0 0 0
109 1 -0.02064950712645196 13.31144972763198 11.804577189761472 2.6249656368149936 0 0 0
117 1 0.03081101771845656 13.927916454234479 12.11105315392056 1.383556666994602 0 0 0
98 1 0.01222273922721719 18.536737502333054 7.860432788904265 2.830541605185864 0 0 0
99 2 0.04689291754277127 18.37798171542918 11.344151178274883 1.9411046798020724 0 0 0
110 2 0.05168091615758495 17.055896270491427 7.5851675506902785 6.051591443251577 0 0 0
100 2 0.07375668557544159 18.42998432779444 11.216647656974907 5.362157478391141 0 0 0
111 1 0.02858808396588328 18.65403374495601 10.251130275785219 5.845385102024029 0 0 0
11875 1 0.02149710435038916 16.062006124048462 12.252631366950903 0.17408463842485386 0 0 1
11878 1 -0.002772497736996863 17.403903302136637 11.939355362285392 0.16432325647463483 0 0 1
129 1 -0.01176028396241511 18.88395034503786 7.769349037338782 0.409577708842134 0 0 0
119 4 -0.5249402957250697 22.067949600704065 6.977416948939428 3.9310033703358243 0 0 0
131 1 0.0275341843461223 18.93679326643477 9.12696612657729 4.922815955374001 0 0 0
121 2 0.1040752516094332 20.99607789352994 8.951121012544514 5.812746968415204 0 0 0
124 1 -0.01543147767108004 20.3026542313189 8.692314977911753 5.035120959313717 0 0 0
126 2 0.08397116720495074 22.784286189148762 9.686100294344122 5.1810952321057515 0 0 0
130 1 0.2711182242538438 20.683889132757283 7.723989488740668 4.03741720053169 0 0 0
133 1 -0.0573009776356309 19.72222932437631 7.587929513373053 3.170903274727457 0 0 0
127 2 0.0600772246290894 24.233210726107636 11.42520618175876 3.935438660723716 0 0 0
134 1 0.1265148563645254 23.85147388146065 11.961700013892811 4.874305338833632 0 0 0
123 4 -0.4871447708764154 22.274241192675152 11.968745699629206 4.521859518504543 0 0 0
11896 1 0.0199573841100139 19.254619798159233 10.182876742446549 0.27177344230975065 0 0 1
120 1 0.4933360504596277 22.00315869628354 11.265486324084334 3.282973274702643 0 0 0
1285 1 0.008592854893093891 23.919281741501614 11.235801429396066 6.1135313569610235 0 0 0
132 4 -0.7063593479561284 20.63334332648447 10.754148227790065 2.912158473195859 0 0 0
1284 1 -0.03385526669801511 23.25529858269287 10.053165126287556 6.156479291863926 0 0 0
128 2 0.3293549424865126 20.145908790006985 11.218567832166803 3.542512603039188 0 0 0
125 2 -0.01337962714077853 22.812757136342878 10.706748456041622 2.746676566220732 0 0 0
11894 1 -0.003843463234763498 19.71047270194067 8.870197086191334 0.24645835683027909 0 0 1
138 1 0.01880733961916414 28.594224617704334 6.70723536304831 5.222005810562341 0 0 0
147 2 0.06761812021850236 28.211087023121227 7.762221723016516 3.4016243925141194 0 0 0
145 2 0.0359159000956706 25.618244873769573 7.814312522281875 4.641820761214199 0 0 0
142 2 0.004188485162340684 25.884705821266735 9.208512846113184 3.8264511697771155 0 0 0
144 1 -0.02724640692148356 28.66886820198491 7.693317210599863 4.405522114706033 0 0 0
146 1 0.3239101919356907 26.43861945308008 10.05389564435374 4.387197669979901 0 0 0
148 4 -0.486937608956147 26.635665013164715 11.049182275368508 3.6895220866799843 0 0 0
150 2 0.1025850474503363 29.23057621052794 11.531486150054459 2.60889121373851 0 0 0
139 1 0.2142055861900294 29.58868894849991 8.74322661434791 4.997801291812804 0 0 0
141 4 -0.6249043381108016 29.838722878887687 9.993667747610969 4.147918804582945 0 0 0
143 1 -0.06199004521925204 30.126742835306118 8.566592981569194 0.9124550538008389 0 0 0
140 2 0.3821039613906335 30.075538303434655 10.53851422519682 4.824075897827946 0 0 0
151 2 0.09205715754744012 28.59510072560028 11.830377967639174 4.529064503188547 0 0 0
153 1 0.2781714663134708 30.528855113499326 7.5053269881028815 1.7127158513721674 0 0 0
135 1 0.2008062396390515 28.061943126509373 12.136196182401903 5.4622721181450435 0 0 0
155 1 0.03736368033394653 30.919448720487882 9.724551103923858 0.8855399281295262 0 0 0
137 1 -0.01453055528597581 25.81028939556857 7.71968912588269 5.723780912794046 0 0 0
136 1 -0.0831945140525336 26.846296957385512 9.949202139467427 5.776238834515163 0 0 0
176 1 0.007193777077899546 31.375768232906175 12.139586789239418 0.18955128156334505 0 0 0
82 4 -0.6685907650047949 31.76965422159117 6.565910741966177 4.7902333027976844 0 0 0
72 1 0.2616552721232708 33.910711890657495 6.364788222885438 1.8111409872027886 0 0 0
84 2 0.377193572745381 32.52097431610072 7.01109607146318 5.0660056854757265 0 0 0
177 1 -0.1395440114666784 31.61207663906473 7.607658873202563 2.541782797987758 0 0 0
158 1 0.05533130743722918 32.508394441825395 11.180973959988828 2.0609714693103074 0 0 0
159 1 0.01291686958242569 36.16196842010485 8.359094931473793 2.093623459332814 0 0 0
162 1 0.2696977146753828 33.80844333840022 10.308912717262276 4.039519149196139 0 0 0
164 1 -0.04764635136457401 31.85225425530326 9.914925189388148 1.953259140410611 0 0 0
169 1 0.3392933131580939 32.23373564961345 8.843566953097275 2.8012148750057957 0 0 0
173 4 -0.5200232823733569 33.368412159886994 8.907614568668597 3.740978835181086 0 0 0
174 1 -0.03608664861575011 33.38843759038703 11.34451903976651 3.1401714069323514 0 0 0
166 1 -0.0953828043572907 34.66860275770782 10.488505674843994 5.047293644353779 0 0 0
178 1 0.005875295073922124 35.27322889376112 11.696451875685815 5.270079014421679 0 0 0
161 1 0.0124879516928862 35.387776987641274 8.175646224387933 1.0036203182308492 0 0 0
160 1 -0.003533212660042133 35.814764078046124 10.868999855473856 0.7888738161118313 0 0 0
175 1 -0.09300499663639296 34.51356839208892 6.853173845049611 0.7192140621772507 0 0 0
170 1 -0.01023967505215307 36.78841015324419 11.25955668439507 1.8739691554720639 0 0 0
165 1 0.01328533597960948 36.77729253900734 9.007219396309262 2.851164064923754 0 0 0
168 1 -0.02335118780292442 32.32404488588621 12.280647372904797 1.2349433819198308 0 0 0
172 1 -0.006161163432511315 35.28615640842695 9.479557825332593 0.3948138279206418 0 0 0
1347 2 0.02215878081447905 34.61552029510599 8.209048784565042 5.938559093540486 0 0 0
1342 1 0.371522762990916 35.096257907620554 9.248993883303692 5.936510478045016 0 0 0
1341 2 0.06605234130596477 35.98436082153162 11.877148927222201 6.020754846638834 0 0 0
171 1 0.00785747749033207 37.14564167116606 10.306049320792768 3.1004208589262015 0 0 0
180 1 -0.003447472228619196 37.42372715538463 12.436184029224966 1.9503393740828863 0 0 0
88 1 0.04941276271042259 38.347516528262545 6.35938780963316 5.067268483980943 0 0 0
189 1 0.04240881016387712 41.19948844846148 6.511178004296725 2.7371234589221274 0 0 0
190 1 0.03657276782982266 40.430283161998524 6.780283584208233 3.8624503000986574 0 0 0
181 1 -0.005838879335820731 38.03214799127987 10.557972675864974 4.086631413241535 0 0 0
196 1 0.007310529504896868 43.35201066819059 6.545561330713026 1.5850711668373108 0 0 0
195 1 0.06824643846011692 42.576041480581495 6.922918624553709 2.7356616527663444 0 0 0
193 1 0.0604751392998842 41.029646128063135 7.485130821072539 4.952482987720537 0 0 0
183 1 0.109059194582916 38.8021948609489 10.848531696163244 4.990792905237546 0 0 0
188 4 -0.5911406252366129 41.326152403179485 9.592495065173843 3.566057957973638 0 0 0
191 1 0.08123871755410503 42.356436294215655 7.881189345871789 4.975262184351392 0 0 0
184 1 0.5863046485414447 41.643467929466496 10.75578843635441 3.5231403987585 0 0 0
185 1 0.01581683052189758 43.14012752673213 7.597835751117837 3.838868218381999 0 0 0
275 2 -0.05296579767894281 41.84411404441493 11.260880273743581 2.5478880745185193 0 0 0
277 4 -0.4692623741081541 41.73407120971911 11.652614635920102 4.8022946409508025 0 0 0
187 1 0.006416075967223148 42.89428204760409 8.416372920473169 6.159443285866045 0 0 0
1374 1 0.03521975264504388 38.877661208242195 7.042609787251198 6.1665262354899815 0 0 0
182 1 0.02922519940871929 40.2314646913927 7.532356746255548 6.092174621576963 0 0 0
192 1 0.3225488169430172 44.55905940561844 8.098685052940471 3.8712577449734145 0 0 0
194 2 0.1122196101194727 44.41568194190485 6.8260422707136605 1.4709486726666914 0 0 0
197 2 0.04100386735201232 45.0114678983757 8.547688320367534 4.783885645035565 0 0 0
198 4 -0.4332613726507202 45.2747013504519 8.048011583254072 2.8208831522485305 0 0 0
186 2 0.1050978776557939 43.921090757834406 8.730269255466713 6.100531602251177 0 0 0
92 2 0.08035949972350123 12.408617496226867 13.41780303124118 0.6901993725079956 0 0 0
93 1 -0.07627008510080899 13.382739310523666 13.081249490267442 0.529786472836707 0 0 0
122 1 0.2880334398797119 24.370597780605404 13.347444930382293 4.91314358531515 0 0 0
199 4 -0.4781855591306999 24.356086582455468 14.069173105531123 3.669157700562927 0 0 0
200 1 -0.06359846217513183 24.958146872004516 13.90045315067735 5.969225560857348 0 0 0
203 1 0.2041792342425271 29.295450215022907 12.613818441403724 2.480882407338179 0 0 0
227 4 -0.4553365538590476 30.887912406079167 12.657777453065044 4.452466280909561 0 0 0
205 2 0.05823029207010899 27.19541608094369 12.792529883014335 5.0917232423627 0 0 0
201 1 0.2757186460684353 25.140965795715214 15.360174662028022 3.5166636080062252 0 0 0
214 4 -0.465017783459538 28.633698190836828 13.165607958434784 1.2577935143825039 0 0 0
202 2 0.07689554285741315 25.241636717664015 15.797692860408908 2.544383088281632 0 0 0
218 1 0.1783296430271356 30.234535450401214 13.294743900227378 3.2166058236056525 0 0 0
210 1 0.05176285651989965 25.539112261503536 15.225118905644251 5.967628554082273 0 0 0
217 1 -0.06430080114308612 25.688603739526513 15.875045563096643 4.702876149812189 0 0 0
215 4 -0.5071408624530208 26.574564038934643 17.654217012129124 3.1547001507613914 0 0 0
222 1 0.204416265105726 26.49656109802213 17.159650392659167 4.590081362344909 0 0 0
206 1 0.2667536537844348 29.04816685268391 14.514172794366694 0.9509541209706296 0 0 0
212 1 0.1751048495584974 27.13414573766287 17.652542976831228 5.723693199782284 0 0 0
219 1 -0.05612626084181936 29.857237277401897 15.263164758101775 1.7158438000392318 0 0 0
216 1 -0.002480835378462644 30.113096075086446 16.622724103475186 1.2933314744218953 0 0 0
221 1 -0.009812031670970165 30.41923462916096 14.661761481652237 2.96336274929036 0 0 0
223 1 0.01083792901039723 30.83447045695071 17.454712678881183 2.105516991509387 0 0 0
320 1 0.02987802123204479 30.971663881527437 18.871574439207954 1.8480108657222871 0 0 0
208 2 0.05039893844559153 29.595333235940448 16.898359285668345 0.395396492812146 0 0 0
213 2 0.02618210856658736 28.684801567152064 15.040557629730843 0.05620534494250908 0 0 0
1406 4 -0.5600806914791973 30.31784897167943 16.52236102470156 6.203588141803573 0 0 0
243 1 0.06534764207979765 31.16470807056032 15.54666984725692 3.7580592454359003 0 0 0
167 1 -0.002753530236153567 34.01966927927348 12.598612729955416 3.3370864435374434 0 0 0
157 1 -0.004074977796255073 34.999725728387126 12.736645707952414 4.362290073262895 0 0 0
246 1 0.007679362431376941 31.382299110338845 16.86729878347652 3.361373638150226 0 0 0
251 1 0.03132403612031383 32.11372045307757 17.684536413656296 4.232441600253348 0 0 0
238 1 0.283127304374212 31.754776744510256 13.647823245468343 5.229615009264071 0 0 0
250 1 -0.03940926560510537 31.880325616991396 14.979683104591018 4.894692937722374 0 0 0
236 1 -0.01197353224871983 33.06220723552826 13.536802781974586 1.388548432043518 0 0 0
229 1 -0.08547490757427784 35.6298343842677 13.98677614720136 4.635687283374502 0 0 0
230 1 -0.06982767874696953 35.06869852636324 17.203629723803136 1.9971972002498188 0 0 0
233 1 0.2626228539588065 35.471577800326834 15.044178223237177 3.831922008859576 0 0 0
234 4 -0.5233645154734442 36.2105426477018 16.313430695643476 4.082118052054475 0 0 0
237 1 -0.07965219560543504 34.5685442475511 14.925934635221145 2.7576229272476223 0 0 0
240 1 0.002505551946799373 33.91081694531775 13.714919909511543 2.4683834590283396 0 0 0
241 1 -0.02503690205524918 33.490432422648155 15.876236742247382 0.7024389467498193 0 0 0
247 1 0.05257931967169859 34.388130824293306 16.00030030406705 1.8192474658663678 0 0 0
248 1 0.4336512053269431 35.82441502822523 17.558110542244254 3.265538928473258 0 0 0
224 2 0.06987019018364454 36.455198928297904 14.00741915965027 5.400586026134885 0 0 0
225 1 0.03150926742136521 32.77900760296825 17.122181561873774 5.3375105325733365 0 0 0
1436 1 0.05483172967167781 32.74628338522191 15.783604665147188 5.666783851327534 0 0 0
244 1 -0.007436599104069769 32.775533402184834 14.684767122314364 0.5692895268166969 0 0 0
231 2 -0.009548142098984549 35.21043294250143 18.234275309575796 4.0474807254555 0 0 0
235 1 0.0625113319172703 34.850361237961835 18.268402114786614 1.1152120089220623 0 0 0
232 1 -0.04884098649372458 33.82614747401416 18.165788055377057 0.08653861647449784 0 0 0
242 4 -0.5241503664433251 37.047404972621564 18.43259646332452 2.9682383661292997 0 0 0
1433 1 0.001829343082905475 33.69499209504165 17.96441584988479 6.1048691732478 0 0 0
1427 1 -0.05063807692569245 32.60016806460638 13.080432907694254 6.121073681587276 0 0 0
239 2 0.111881678680488 37.72773450815793 17.936213617749164 0.35899866705104444 0 0 0
257 1 0.01322501600044859 38.00854675071942 13.672524372634879 1.920055421856629 0 0 0
258 1 0.04691187236561311 38.0273799272188 13.928755985204301 0.46134240776104357 0 0 0
262 1 0.2263222797777848 42.33124413094673 13.055177017153998 4.634082806928234 0 0 0
256 1 0.04412766860908735 39.52463187370504 17.73322264928454 4.626757240192897 0 0 0
263 1 -0.01908797770854824 41.653731661221286 17.03749584843429 1.7816194579689346 0 0 0
264 1 0.02984316576278019 39.17374749701098 15.378702438935179 3.6067426323119385 0 0 0
265 1 0.06115258675308567 39.218269009904816 16.34072745986368 4.191891539102291 0 0 0
270 1 0.01421960635136413 39.23964213550952 14.336684463768028 2.5384581279884633 0 0 0
271 1 0.006377353241938197 40.09961935102179 14.717466404325933 1.500423053056854 0 0 0
276 2 0.02384512602852177 41.761406891364075 16.814641887676718 2.8709808504544867 0 0 0
268 1 0.2026947354152581 42.65798746831535 15.485209597790806 5.430770801426125 0 0 0
1465 1 -0.1018709218108238 42.17086519789688 14.108411779167012 5.69453559946436 0 0 0
254 1 0.03506746978533837 40.49648140115614 16.099578528985454 1.051470390163778 0 0 0
266 2 0.06580330819311843 42.6817866108274 16.98083228020742 1.3786664866607983 0 0 0
272 1 0.1577097031080421 42.981626929158736 13.323619516677478 3.4786396372797928 0 0 0
259 2 0.04252593094689 43.073060226682614 12.642088331800178 2.6482658995515784 0 0 0
267 1 0.1746213301888398 43.305921406411095 15.769003987973324 4.27034622235308 0 0 0
1467 1 0.05046591006238544 38.969775276079616 18.554825641546714 5.952325189148625 0 0 0
278 1 0.01676036859650723 40.36964952563527 18.43588830562924 3.857948757518833 0 0 0
260 4 -0.4655080357009899 43.585445293724085 14.700093227289857 3.2480319016612196 0 0 0
279 2 0.03322037060218898 43.71443306948978 16.804757255862885 4.055665276122696 0 0 0
274 1 0.01316712744081536 39.362243057398686 14.469214241947132 0.24929410565511176 0 0 0
253 1 -0.0464023500545453 41.0461339285627 18.441472659374472 1.5808040727562724 0 0 0
269 2 0.06577743165641776 39.97714276679941 18.564416380547033 1.352087819424726 0 0 0
10147 2 0.3486451730367381 42.48407717473804 18.813505621838953 6.03553304596645 0 -8 -1
255 2 0.0198470519115578 43.880269648830186 16.413857980407364 56.513490677437304 0 0 -1
3429 2 0.2913330272330649 47.39634183325773 17.742198164964808 6.690504027942933 0 0 0
3413 4 -0.6119915084859782 47.58661484926311 18.643588444259795 6.378500005752784 0 0 0
293 1 0.005870868355363521 22.9039983909801 24.874543916233225 0.923495284874064 0 0 0
282 2 0.04433032677920241 23.89180492038134 25.088476517495852 1.4613215002532842 0 0 0
284 2 0.04843239004326814 24.63763391613623 24.571253707773973 5.685130449092659 0 0 0
209 4 -0.4820010019797069 28.080677122651917 18.931404544614846 5.6324134947019 0 0 0
207 1 0.6442701266230433 27.383258607893456 18.956341474524113 3.098543430608702 0 0 0
312 2 0.1053744054391933 30.41869844549463 19.273956032761564 0.9488687020140796 0 0 0
287 4 -0.5101576396871954 25.23878116120655 21.27744146398595 1.6491569972810303 0 0 0
204 4 -0.5186969430430711 28.053664311959114 19.32808051739064 2.161217505559094 0 0 0
211 2 0.00669181581738386 27.19247850260978 19.753218319182345 3.844382763342314 0 0 0
301 2 0.05103296726688365 25.50626132439138 24.462017406592278 2.968410830948192 0 0 0
310 2 -0.0009425758542303804 27.800628114639714 20.876940699525807 4.897559590608871 0 0 0
309 1 0.6187627786545988 28.735828925043535 21.483123968084687 4.6967758436010945 0 0 0
304 4 -0.5957712342755632 28.686587290191987 22.309920756104074 3.809163556025941 0 0 0
314 1 0.6487627544123087 26.22279583714259 21.411388093979276 0.9440603833989373 0 0 0
305 2 0.02731777672642673 27.179743297156314 21.840906450194996 1.4258573331295616 0 0 0
308 4 -0.516149399116291 29.975051206425785 21.284301501154253 5.565282212731312 0 0 0
303 2 0.001473404766629251 29.779149119823007 22.230864710426683 1.6453683806116373 0 0 0
318 2 0.05020231169011213 30.726578414726667 21.434431871059367 2.8460644566077664 0 0 0
300 1 0.5931615803645404 30.521301576489773 22.302564006820884 0.8240371755641782 0 0 0
441 2 0.04005783437953926 26.814492779980558 24.008305962708853 4.914566944307813 0 0 0
302 1 -0.05197826307149343 27.896880206472744 24.458415330090595 2.0259066607730056 0 0 0
306 2 0.09508743901969938 30.92126479970419 23.184397909266284 4.426452736672592 0 0 0
313 2 0.09044305603566508 27.117930201093962 23.680291578970554 2.215498008743253 0 0 0
298 2 0.0521231680888663 28.256922351300844 24.60847746343733 1.0034040288715784 0 0 0
297 2 0.07622408553692929 28.684443767304405 24.266889813009453 2.788390203728859 0 0 0
319 1 -0.03135818590878431 26.53599775819079 25.060397283998547 4.812476584815471 0 0 0
296 2 0.02771228221295488 29.481427984790287 24.540069269980133 5.9962079338259375 0 0 0
315 1 -0.06696774720345104 31.297856710731235 24.135053947530626 4.790051373221096 0 0 0
317 2 0.07894092242479435 32.04197957659169 23.86932090174623 5.551502864806311 0 0 0
329 4 -0.5556402770539485 31.7234164626723 21.423449743739575 1.0082072217873022 0 0 0
325 1 0.007335245838955083 32.276495968174885 19.061396889442605 3.821440558838952 0 0 0
342 1 -0.01055066483978857 31.667569242555782 19.62525547411072 2.7141459726448085 0 0 0
326 1 0.1989218961196027 31.70366898812419 21.044499707397037 2.485277808298904 0 0 0
1505 1 0.01145531141240883 33.95451288480299 19.36497094118059 5.66389856735745 0 0 0
252 1 -0.08419004066636253 35.606050780762644 19.447024261194603 1.2278444815912906 0 0 0
327 1 -0.01585366233155523 33.23578070405737 23.139615121799178 2.7609456110936534 0 0 0
331 1 0.01942223408936149 33.12985355521945 19.93576198597415 4.568091724266932 0 0 0
332 1 -0.02204402989137026 34.88246688965836 23.48743057441513 4.594027108216688 0 0 0