LAMMPS data file via write_data, version 19 Nov 2024, timestep = 3863535, units = real

10582 atoms
4 atom types

0 153.159306 xlo xhi
0 56.144225 ylo yhi
0 56.144226 zlo zhi

Masses

1 12.011
2 1.008
3 14.007
4 15.999

Atoms # charge/kk

1 2 0.02656883121579131 17.537729907185888 3.8809471510031255 5.65993641890371 0 0 0
2 2 0.02433945075328654 15.173962420609707 4.800998663184397 6.143499014165931 0 0 0
3 1 -0.02372093259783091 17.94149924009416 4.577206008520217 6.408585496738303 0 0 0
4 1 -0.01130083765268846 15.642385448745516 5.546452805345356 6.783813924826736 0 0 0
7 2 0.02604817108098421 19.541794812232965 2.515481041669282 5.9878408807083705 0 0 0
8 2 0.03217973281462606 23.511836215284593 5.352322833001382 5.767881701288364 0 0 0
10 2 0.04198089101462387 21.38115562145658 6.126683514077229 5.287048591875353 0 0 0
9 1 -0.02315415107294047 23.741287070055993 6.187101483232402 6.452938039597376 0 0 0
11 2 0.0238449906807346 21.792493158992755 1.0720259900423057 6.108261291023962 0 0 0
12 1 -0.02185436184558799 20.001523804989183 3.2267314215961465 6.681657040118705 0 0 0
14 1 -0.01975382925912935 22.17010794841963 1.8441807196177031 6.848518837476325 0 0 0
23 4 -0.4195219012833545 22.408568490110138 6.944693253716032 2.227014550379575 0 0 0
15 1 0.00925843193373964 19.224589731889136 4.36175341177935 7.001209661694077 0 0 0
13 2 0.02094680081334666 25.600626902676865 4.384174186500094 6.391620818147202 0 0 0
19 2 0.03040459579749257 17.331944281682887 13.562520791314371 4.389179850551688 0 0 0
18 2 0.01309026694434898 18.490514905645007 9.61177008968642 6.751922771442293 0 0 0
17 1 -0.01514657537604547 21.47814132572856 7.0254075694985145 5.916515584201603 0 0 0
24 2 0.05377109426195913 24.75136044947426 7.125204730105267 3.574109251272947 0 0 0
21 2 0.02003741865693408 19.057143200514233 12.006919383848205 3.6874301898531643 0 0 0
25 1 0.008824495729935196 22.721968839674673 7.185001362199914 6.641143067819512 0 0 0
26 1 0.002312618104236966 19.38543888724275 13.403209513815783 5.277471945750669 0 0 0
22 2 0.0229057025540551 19.551549435306832 7.714064819462758 5.513983773055037 0 0 0
41 1 -0.0133232194539379 20.518246896794825 8.016212687495454 5.938141456243071 0 0 0
28 1 -0.03157210086699376 19.816814434597557 12.346355095692203 4.454553029408194 0 0 0
30 1 0.3073935218087963 22.244665555441706 8.048448562644555 2.8082226372656107 0 0 0
34 1 0.003927676830915008 22.750515821426415 9.874777880176097 4.356866049004193 0 0 0
37 2 0.02072801742083883 20.86652213045251 10.118064511140288 3.22797496394914 0 0 0
38 2 -0.003948264282233647 21.280408316842145 8.587842691745886 2.6375711044290324 0 0 0
39 1 -0.03380140955459882 21.513149952280774 10.517011544679937 3.9819931571309146 0 0 0
40 1 0.003460722254337082 21.057145912605844 11.680677523107295 4.677358308414088 0 0 0
42 1 -0.008048642434568378 21.907407763338657 12.24590970598993 5.782296693582544 0 0 0
44 1 -0.04867952188004972 23.26161025587853 8.641241565700485 3.791357243985443 0 0 0
45 1 0.0006288011831188848 23.61210296065539 10.501286255285962 5.392781587147442 0 0 0
43 1 -0.003210907417661914 23.159771286847448 11.618530307824832 6.127820705671338 0 0 0
36 2 0.02153355643020832 23.46972509251339 11.925260106705384 2.214079303128696 0 0 0
47 2 0.02586082479569487 24.680876020848913 10.814321103957521 1.9650073743138146 0 0 0
27 1 0.006117488744523865 24.71528167346273 12.95138849164015 3.6198826607701595 0 0 0
29 1 -0.0149675292454682 23.518248443841966 12.808582496833742 2.90438768047183 0 0 0
32 1 0.00723229294193289 24.494495871017367 8.077339595449985 4.055375895082951 0 0 0
35 1 -0.005148651037317506 21.49212788496493 13.366374820364564 6.569087117006242 0 0 0
46 1 -0.0001403894091080033 25.04543007116267 9.933284677104737 5.575665909400643 0 0 0
48 1 -0.001775731442797537 25.498619543191676 8.629107198521293 4.901855223694051 0 0 0
151 2 0.03318671654928707 21.707897663450154 13.657904596250106 2.241662683265534 0 0 0
20 1 0.001591838628360623 24.048086899922858 12.252411583670979 7.250465111243274 0 0 0
152 1 -0.01097851612830939 22.563228627057523 13.812631770620701 2.8581404971895426 0 0 0
31 1 0.004809885877535 20.609723769512783 9.118382479221493 6.8977451567681465 0 0 0
53 2 0.02184731032727366 26.973203642499232 7.057984789061538 4.791389654253023 0 0 0
66 2 0.0258638306668464 29.281803698823126 7.1364711002046555 6.21224355717816 0 0 0
49 1 -0.007143342115623044 25.621504541171632 10.86880420261264 2.5053717639898228 0 0 0
33 1 0.01044433580278674 25.816859079486687 11.974164178284894 3.4186218173192304 0 0 0
51 2 0.02947281334786756 26.535177058819517 9.046005397991912 1.7053349172576342 0 0 0
55 1 -0.01469828248313492 26.643863817364288 9.915209200363899 2.372208030973754 0 0 0
67 1 0.02091347716682548 26.996866975756053 12.220029742928999 4.2554364828438676 0 0 0
68 1 0.006974315836533644 27.905906441004895 10.160081189306645 3.1035173701390413 0 0 0
56 1 -0.01225975480920305 30.210143483386116 9.618652506578481 3.710925370067414 0 0 0
57 1 -0.004202103391004684 30.22575207604133 10.48911876045577 4.812064853514565 0 0 0
61 1 0.01343382310265282 28.047673850985593 11.279038658473638 4.069997457888498 0 0 0
65 1 0.01214922786999884 29.369970950880475 12.552950787555645 5.8229047652029795 0 0 0
69 2 0.02564473294349007 29.037312355552967 8.658631239576437 2.0723071540521802 0 0 0
71 1 -0.02497771749748348 26.712379605158837 8.008142042365488 5.277401817924573 0 0 0
77 1 -0.01486927144589278 29.086471441246978 9.40832841097608 2.876351807879365 0 0 0
78 1 0.001642835376680786 29.164453851645035 11.453556591891239 4.9285607313139055 0 0 0
58 2 0.03799870428920667 31.136463668942667 9.029361250314782 3.5156266195618366 0 0 0
59 1 0.005961718705640268 31.39589534623895 10.600515326970315 5.645762127960762 0 0 0
73 1 0.01515563015146872 31.48719068926876 11.63546578839314 6.538920075590049 0 0 0
74 1 0.008443394593294358 30.45774102725995 12.63320275708899 6.629264621434175 0 0 0
70 1 0.002831840647980779 27.594950550758398 8.589359677056382 6.243621830814813 0 0 0
50 1 -0.0007797047576122541 25.967412318116462 10.317908121308736 6.479260331688336 0 0 0
62 1 0.004750392117362191 28.284840888530972 13.445247827314608 5.993745686213563 0 0 0
54 1 0.01261606200048267 27.078729872099412 13.315802679057043 5.237317655895214 0 0 0
64 1 -0.02504404856568803 28.861235568528247 8.056135316630538 6.665184655802855 0 0 0
60 2 -0.02303241377570333 31.564011486674644 12.687575367809753 2.94307503634592 0 0 0
79 4 -0.5261703293558186 33.861252330021514 7.2842145769966855 5.937827338115833 0 0 0
72 2 0.06225331014239605 32.185066106183726 8.696897227355306 4.997044955790096 0 0 0
76 1 0.02634305591956766 32.29693249327464 9.530789741770088 5.664196395208239 0 0 0
63 1 -0.07069005954369195 33.33066899155711 9.52413403789711 6.569849319724119 0 0 0
75 1 0.6033311055137861 32.30865955714961 12.977240961821302 3.739538662395836 0 0 0
52 4 -0.5074797786101376 33.38806700986502 12.430873443149906 3.985963397231653 0 0 0
85 1 0.6474818423502973 36.1152385916003 13.339333818563677 0.620624680907553 0 0 0
82 1 0.6094576047503862 34.14353881238317 8.243204383053069 6.658712671780473 0 0 0
86 4 -0.5635649436791907 37.27442942238875 13.150219875281199 0.3632823223311933 0 0 0
88 2 0.03654645437584115 35.36299656074185 13.166618286538823 5.746770229628236 0 0 0
87 4 -0.5213281696259167 34.67163082415933 13.701632022528527 0.94748443203271 0 0 0
83 2 0.08396618489210496 36.8066869549307 14.43799246717461 2.826206847193592 0 0 0
84 1 0.2909428602532899 36.13762115024452 13.476333990690048 6.528540500283891 0 0 0
81 4 -0.4094234312614596 37.13301391011526 12.755866342667753 6.798947654624856 0 0 0
1129 2 0.2802812069631688 36.06280262126995 9.822999981013576 7.074038571282845 0 0 0
93 2 0.0197751400229734 42.677652011237356 13.737916990832304 4.150466618841587 0 0 0
100 2 -0.01551508635562049 45.534680698301116 11.418636553712632 3.899465809320831 0 0 0
90 1 0.6135650607191449 45.46091195092117 12.487265468689484 4.27102729488464 0 0 0
97 4 -0.5259934919048698 45.17652782440729 12.741160775964785 5.447088193306373 0 0 0
89 4 -0.5953520798128862 45.56950099053238 13.445015596525675 3.1199806626554967 0 0 0
95 2 0.09747763677368775 44.715686872539536 13.890929524681248 1.0590400146581616 0 0 0
102 2 -0.01226042732938761 5.968705 20.986635 3.179762 0 0 0
104 2 0.03121321914632829 8.167552 17.497696 6.572492 0 0 0
105 2 0.08355748695998964 7.580905 19.829989 6.493539 0 0 0
106 1 -0.06284152249580389 10.11032780047936 20.12968512246392 1.9076965536329709 0 0 0
107 1 -0.001474941350715942 11.100677154889327 19.18332017513662 1.1101221404690078 0 0 0
108 1 0.246450848152945 8.819947 20.312613 1.49527 0 0 0
110 1 -0.002141995704171718 12.473392620382619 19.15686464555371 1.4722569909127883 0 0 0
103 2 0.01991252664660308 10.248117193659711 20.7148881575094 6.576394593968948 0 0 0
117 1 -0.02056897859552872 18.035645605544552 13.997489766600088 5.135918616070357 0 0 0
9856 2 0.005008931224285904 15.972160263868258 13.999552336738969 56.112765758324095 0 0 0
123 1 -0.000237593511055865 17.66746875215656 15.109723614792635 5.794188279176769 0 0 0
111 1 0.0009861044595947089 14.878408468870436 18.395999686868418 1.074302989857854 0 0 0
112 2 0.08354833684669372 16.698662307901394 15.597161569015517 5.599842736471864 0 0 0
113 2 0.03200379170151597 13.57569088205667 19.90232064631594 5.630420120114447 0 0 0
115 1 0.003607523291600359 13.542219949416808 18.36535147689688 0.6238196133828554 0 0 0
118 1 0.03212164352471567 16.73341914321786 19.584841016947827 2.3245710665922363 0 0 0
119 4 -0.5416747948102483 18.095093530079616 17.929102956805067 4.3065813285465815 0 0 0
120 1 -0.01358186583193303 17.668576250885618 18.730998464121946 1.7185275197730117 0 0 0
121 1 -0.0008406256263473079 13.00023385567961 20.100825184794633 2.4755199604837212 0 0 0
125 1 0.04971488690850799 17.039527790834512 17.883953618030958 0.927709518620631 0 0 0
126 1 -0.001106746174705772 15.353594509570799 19.482470853450003 1.9778396728184682 0 0 0
127 1 0.003216771868616168 14.393569659023019 20.32347203065745 2.6283378891249054 0 0 0
128 2 0.07394870035567562 14.421123358966172 17.623213736364615 6.0442575165715375 0 0 0
114 1 0.0206609460572043 17.250368337995766 20.583403499070638 3.22097372305809 0 0 0
124 1 -0.002095846219764196 15.898303699652377 17.33160178518547 0.3262074246441759 0 0 0
122 1 0.03459764947001907 18.599071927189204 20.753101953463105 3.4964024272099934 0 0 0
116 1 0.01883040432041367 18.542636040789255 15.691328662273786 6.867446683127843 0 0 0
109 1 -0.002191608814119507 13.46940938524751 20.063537009077923 6.690757891140817 0 0 0
155 1 0.6041305377807333 19.160020940194148 17.305933806494743 4.32531885583403 0 0 0
145 1 -0.002579967521809997 20.23250819923801 13.963823074065877 6.298170629915743 0 0 0
139 1 0.007204306995339178 24.906764254313792 14.10032421114755 4.4932405357922205 0 0 0
154 2 -0.03716101358805138 19.252229582900338 16.320357958598414 3.615044528774743 0 0 0
146 1 0.3291935903928269 19.234220751033742 18.98119155066161 1.7978507715628216 0 0 0
136 2 0.0510503471750875 20.647464407176134 15.557827684531759 3.369046022007882 0 0 0
129 1 -0.005286233063800716 23.88331701075288 15.08909455184293 4.555482318495502 0 0 0
130 1 0.009645431362908173 23.89681823562324 16.22401374627195 5.41475342564676 0 0 0
131 1 -0.03865311999529495 22.775912883272095 17.114706698559647 5.5852819210894475 0 0 0
133 1 -0.02938071244515554 20.93787022194861 20.256188918432727 3.135910126397043 0 0 0
134 1 0.0294696738544638 22.707566942429796 14.94132827326475 3.777444596098975 0 0 0
135 2 0.08076404371567875 21.529149727204185 18.248809480715046 2.1998018220431956 0 0 0
138 1 -0.07908888522967554 21.56995684556743 15.7719264354839 3.9833880397017474 0 0 0
140 1 0.2599589722730875 21.600756816339917 16.777482854178782 4.908683230714145 0 0 0
144 4 -0.4816360332210808 20.009802507092225 18.28530859760937 1.1137609995950934 0 0 0
149 1 -0.02422564926449063 19.655662924494727 19.94732006245512 2.917622185636499 0 0 0
153 4 -0.4977267464750406 23.201121570880904 19.33362536824152 2.7358425191203852 0 0 0
157 4 -0.5906851254978284 20.37816772759874 17.672625610130257 5.104857152577261 0 0 0
159 1 0.3391685794732586 21.952223201353913 19.24324139925259 2.577637250248998 0 0 0
137 2 0.06544766259430466 24.93026342375557 20.267815568543817 4.21963662849338 0 0 0
158 1 0.001452575998853462 25.144179097951753 16.473557270478853 5.985980054676598 0 0 0
132 1 0.04057028603370194 23.001956301526413 18.41114001485178 6.315118180609744 0 0 0
150 2 0.1015832002422291 21.040683666965663 19.46100724615532 5.985846354129684 0 0 0
143 1 -0.009130470155005257 21.994044951087915 19.412314265559104 6.494796919819184 0 0 0
148 1 0.00252311446942326 25.346595583961513 17.60294308748924 6.861009332354831 0 0 0
385 1 0.02361688494061807 21.361604310503203 21.229340842787437 4.116748522653166 0 0 0
191 2 0.05100536418612966 30.553599927813227 14.115414069018335 2.8349706732565196 0 0 0
141 1 0.005545052205636303 26.045818915001234 14.286011285222013 5.25179754387694 0 0 0
355 1 -0.02206853045018357 25.757462012165252 20.717055606712602 4.789852035701095 0 0 0
160 1 0.000881037340173333 26.229291697895746 15.497901697025512 5.971517862418211 0 0 0
169 4 -0.4629020751954789 28.621672512130573 14.372592173415914 2.3844948812171314 0 0 0
156 2 0.04594000780507636 26.29515381902367 18.326710253664185 3.6723566317025815 0 0 0
164 1 -0.0009955181488781877 29.4064017541638 18.473163749189332 5.2072710727228415 0 0 0
166 2 0.05985580339419459 27.575762105039082 16.470977599631656 3.066118699606568 0 0 0
167 1 -0.001093607931556812 28.313413413746567 18.069925323227864 4.36684573325899 0 0 0
173 1 -0.001877913650273323 29.241906711126227 19.755313228047715 5.803744681215419 0 0 0
174 1 0.01723389534516591 26.97978338691976 20.078040865968802 4.831341875689223 0 0 0
175 1 -0.02214854219032187 27.092895438918344 18.7839279156427 4.258697672792057 0 0 0
176 1 0.3206642414463797 29.652384321829103 14.763551544489534 3.0095449071504334 0 0 0
177 1 -0.01649429140772309 29.559824862158063 16.061501944105185 3.825936810821725 0 0 0
178 1 -0.002768725298487997 30.732726801608028 18.818303194541432 1.8392822985271504 0 0 0
180 1 0.006457539905940867 30.569242740808733 17.67657479699851 5.371549474097317 0 0 0
181 1 -0.05937668316742283 30.671454087416663 16.45324155300846 4.710156379968095 0 0 0
185 1 0.01839676376404962 30.867733002328677 19.988737362580277 2.637179414604365 0 0 0
187 1 -0.005253982232881068 28.471595012369708 16.81676161168709 3.6997584272808184 0 0 0
190 1 0.03142305686399378 29.666849023870782 18.731579579205228 0.9094783907854287 0 0 0
189 1 -0.0637053941420003 28.80395163814024 19.782400518050537 0.8079097519106719 0 0 0
163 1 -0.002581873706120626 28.11870793677307 20.598296823992847 5.560309747125128 0 0 0
172 1 0.006905241956271516 28.43235212725516 14.714215967984584 6.651626147650064 0 0 0
171 1 0.000995551147555613 27.44735241285726 15.755979310341438 6.633594302365626 0 0 0
184 1 -0.007704691576138471 31.516400331062066 18.113581834070004 6.313204402825286 0 0 0
9890 2 0.07173945592175478 28.0022122765434 19.688850277055025 0.060118665995975734 0 0 1
9888 1 -0.008158117069505392 29.46174014635504 17.479307492704745 0.2355905100363341 0 0 1
9889 1 0.01613984739293993 30.41581372806191 16.56815415347789 0.2944959511025682 0 0 1
162 1 0.03632257535523536 31.60541362408482 16.710562503645857 0.9882205371276601 0 0 0
179 1 -0.0009293453572122184 31.652040404249654 17.776680056631672 1.9233955517053845 0 0 0
182 1 0.2987056372794792 31.725218876861227 15.583822477590294 5.045214973062758 0 0 0
165 1 0.2798104176374288 28.937374709059398 20.975297424781758 1.4853753992735101 0 0 0
186 1 0.0007700011356470893 30.298432451642206 20.178968537357665 6.697110427306814 0 0 0
168 4 -0.6267808804485022 31.818367915008203 14.303042336147394 4.336489079324271 0 0 0
188 1 -0.003009549593124222 31.939780455456468 20.087847038953853 3.57536399977853 0 0 0
212 1 0.2905220630157685 34.76706486299904 14.834392974090687 1.88543317560017 0 0 0
229 2 0.07052513493610658 33.85193921150403 14.165077106950255 5.854643545215224 0 0 0
202 1 -0.08767973749823108 35.86474007734201 14.984302306175364 2.6871458567192406 0 0 0
170 1 -0.04979338226564643 32.754335094625496 15.970053809076372 5.990302804341067 0 0 0
197 1 -0.0007886570179622324 32.79960717660802 17.931474100574235 2.738322134380352 0 0 0
198 1 -0.007549000134163929 32.921806060032466 19.052703130907936 3.619620580581217 0 0 0
199 1 -0.001942885222723375 33.73608337300724 15.819292643575965 1.8498824258395543 0 0 0
201 1 0.001482148079595241 33.72680928567618 16.86330012314304 2.8028449364918155 0 0 0
207 1 0.01953340289055781 35.87816457641528 16.01084319702356 3.619772863391088 0 0 0
210 1 -0.03160208681928176 37.033004489244945 16.101680930629175 4.483304516824589 0 0 0
211 1 -0.009176087419113294 36.027573201501646 18.148458086654184 5.444589845906829 0 0 0
219 1 -0.007818002503418136 33.92031286240841 19.072045408224408 4.56629029806431 0 0 0
221 1 -0.01227782532642857 34.794114034007684 16.94633529621601 3.72154064320012 0 0 0
224 1 0.007272070877219241 37.17558020129381 17.173774414335156 5.368993185433293 0 0 0
226 1 -0.005132944694130527 34.92535570700891 18.02788036397854 4.548825880836846 0 0 0
203 1 -0.01626805359037057 36.94483827727822 18.5928180133513 0.6635761155872388 0 0 0
196 1 -0.05140293644754721 32.70971950749535 15.894372745783622 0.850711231748687 0 0 0
215 1 0.0007875630838618015 33.9679004909821 20.166772520710264 5.456674243165953 0 0 0
218 1 -0.006880637172276553 37.435813276388366 19.578853548422995 3.037952434469496 0 0 0
204 1 -0.005086435469327744 33.821157702778386 15.140991454337849 6.3643382444466985 0 0 0
222 1 -0.002183582501072358 36.13045918540156 19.242514313366122 6.343162527565286 0 0 0
217 1 -0.000433925536841522 35.110602628634034 20.24152123323055 6.332403178400201 0 0 0
216 1 0.01655189822216996 37.657539555557605 18.9392294287217 1.7822159863037415 0 0 0
9942 1 -0.01744447160652247 34.77272299885226 20.05814099959121 0.6560482625052162 0 0 1
214 2 0.07231399665751624 37.80720115106805 15.3009504903337 4.488050331957215 0 0 0
200 1 0.00988561795245314 36.67995891626069 20.689917713613156 3.434922970842808 0 0 0
183 1 0.007510397961339757 32.55245280833643 17.246723122474144 6.680490326972752 0 0 0
9935 1 -0.009346780756446118 35.677787524918166 19.05056633057828 0.2723710926499007 0 0 1
9924 2 0.09961125905563412 33.91177125744107 20.09858670064983 56.09579454523339 0 0 0
223 1 -0.02067544394602 38.25966346490254 17.22396399156081 6.2640431324699515 0 0 0
206 2 0.02760538946308299 38.83192707472257 16.746695861147327 0.5338115779475497 0 0 0
220 1 0.02101225730955545 38.630611709893905 19.636805929619587 3.8636022834007338 0 0 0
205 1 0.01928109770776939 38.59500266279673 20.75957478563351 4.65145992371181 0 0 0
192 1 0.01211097327140038 38.310936289023935 18.375555383810084 7.022325544496035 0 0 0
80 4 -0.5391696682370978 40.748098736723556 14.413753245823354 3.871699097733457 0 0 0
92 1 0.6159255600969979 41.94850603043823 14.447995736569474 3.6104608956669084 0 0 0
209 1 -0.00559157452077661 39.009828626623666 18.21894511762783 2.0296806151891955 0 0 0
228 2 0.1327779548302857 39.96782405765488 15.14320216022506 2.2138451203979455 0 0 0
241 4 -0.5865523076059875 42.62427973196275 15.455446129191236 2.7436932962463447 0 0 0
227 1 0.04588519426494919 39.67478290145769 18.963669815286433 3.165550795293286 0 0 0
230 1 -0.07876742057394837 40.33938863650109 16.147093600728862 1.941039355600382 0 0 0
232 4 -0.6072648228029977 41.62995286090287 18.543089471152243 5.4387868277642015 0 0 0
248 1 -0.1301575426276969 42.13274420219524 17.812079919383365 1.7297006944885658 0 0 0
259 1 0.2879703710324918 41.6416150809485 16.471765952886045 2.1355759494035076 0 0 0
225 1 -0.00906476936845297 39.44520525613642 17.107622152249302 1.3247980916315558 0 0 0
245 2 0.07123425017763609 42.88670898541908 17.69121812506697 0.9551053410510641 0 0 0
251 2 0.004589589606875468 42.27475853339353 16.77781566396021 4.579854918103082 0 0 0
252 1 0.2972456118022407 41.87359552126024 19.119598724210743 2.012551051252913 0 0 0
250 1 0.01163383962704944 41.04733257855267 19.44675917636473 3.185144859917339 0 0 0
231 1 0.6039453542986213 42.24061425173047 17.47847514326419 5.477518689274356 0 0 0
253 4 -0.6149592338043562 42.509051948681666 20.263334069163434 1.2812405762570291 0 0 0
261 1 0.1071179308003729 41.55518280003492 20.52596138836388 3.9416025350132444 0 0 0
208 2 0.05859783143845836 39.038986407105156 16.481151611445547 6.184371836420349 0 0 0
264 2 0.05756670344990265 43.553238020658945 21.00259889445217 3.124616939043319 0 0 0
240 2 0.08129239082519089 43.27639237964279 19.286692436745486 6.8221181169011835 0 0 0
1343 4 -0.5703073084572216 42.83117743241025 16.80264190721786 6.7163884115681185 0 0 0
99 1 -0.002828539920189112 44.99675041483897 14.730597175562401 0.38578502027493045 0 0 0
98 2 0.1193498611815793 45.536483575321625 14.876781703305953 5.739697725050919 0 0 0
94 1 0.3239640268250497 45.4570548578566 14.868047659389994 3.4676182047330584 0 0 0
91 1 -0.06185200440989277 45.45065374406628 15.402441108817953 4.762181753537505 0 0 0
257 1 0.009042949770489512 44.83565632121636 18.39918313686656 3.030697380805783 0 0 0
254 1 0.0165881038793853 45.277611900250285 19.044847121012527 1.9073508924259477 0 0 0
263 1 -0.02339836071533517 45.37709321633107 15.933102047621452 2.4735184015925995 0 0 0
267 1 0.01750603752853516 45.277958428856046 16.809856129699806 4.6339611594813075 0 0 0
234 1 -0.003094769134001448 45.04174085752457 19.062769818292953 4.293338939315283 0 0 0
262 1 0.01474702448978327 45.079452702701126 17.060439962013692 3.264863665763071 0 0 0
236 1 0.03280392016530611 45.4338488787799 15.875647744556241 0.9896117559900909 0 0 0
238 1 -0.002266858328183318 45.832963438796384 18.412593516495892 0.7307548233989615 0 0 0
242 1 0.01007518258429237 45.692835043040134 20.418554792146043 1.9893951344748166 0 0 0
243 1 -0.01018326032468814 46.58173654015301 19.385807673820636 0.07800013347599832 0 0 0
255 1 -0.004422155186606265 45.41073766567979 20.435657262090903 4.411994047384169 0 0 0
235 1 -0.007342434864246686 45.810836970666074 17.0759031499133 0.15288184214029785 0 0 0
265 1 -0.008717471839676869 46.54709480577449 20.560644835895665 0.8864811096420014 0 0 0
244 1 0.007924219743695496 45.24042067164955 18.08281559861898 5.294765081611417 0 0 0
266 1 -0.009113767413174566 45.685780519532045 20.83804327315253 5.755284776332173 0 0 0
1337 1 0.002084542571918398 45.6821356173977 18.542310866820834 6.6348974422756415 0 0 0
1356 1 -0.005591109638106947 45.829319199638554 19.96257725445948 6.886795187481857 0 0 0
268 4 -0.432602917534972 4.146525 21.865682 3.121038 0 0 0
285 1 0.5945244739839304 5.375543 21.953378 3.110837 0 0 0
286 4 -0.5059326540480104 6.138687 23.254896 2.932275 0 0 0
293 2 0.09403831690959753 6.163018 25.188875 4.27902 0 0 0
101 1 0.02999249952488894 10.734844232038812 21.05723473244925 2.923773445661835 0 0 0
336 1 -0.01141567383449622 12.091332447474613 21.002327720750895 3.1754743300660317 0 0 0
270 4 -0.4513464342153495 6.469102 21.695683 6.376509 0 0 0
271 1 0.009187931181727178 11.648481819100416 25.12117994188006 1.5986176528404081 0 0 0
272 1 0.01065414531296455 11.719319024957658 27.023154510113137 3.1703564671037925 0 0 0
273 2 0.01971348330173916 9.918617980269618 26.38357468304306 2.1119429882977303 0 0 0
274 1 -0.03509125126918913 9.760538 21.99638 3.433814 0 0 0
275 1 -0.001920097078289968 11.230647099661757 25.067492289928303 5.937845945034719 0 0 0
276 2 0.1867677331445452 7.007973 21.111952 1.448779 0 0 0
277 3 -0.534014828830261 8.015497 21.177122 1.907942 0 0 0
278 2 0.04710758865730917 6.911429 26.964505 5.751497 0 0 0
279 2 0.02866981075065476 9.712474213213087 24.05301833742042 0.9198167905498317 0 0 0
280 1 0.0003221208198978636 9.47578 24.063403 4.633812 0 0 0
282 1 0.01386424040109887 8.999425 26.097842 6.050172 0 0 0
283 1 0.2295958702774204 7.518864 23.111329 3.432811 0 0 0
284 1 -0.02285125701829159 10.996679278085313 26.17713337859656 2.2146465382875005 0 0 0
287 1 -0.03088021800533452 8.084669 24.074694 4.241896 0 0 0
288 1 -0.003671033426877686 10.307726252459279 23.037663471379677 4.180823033378968 0 0 0
289 1 -0.00517497663926723 9.900937 25.056513 5.53507 0 0 0
290 1 -0.02752756131192928 9.425999 27.095935 6.929657 0 0 0
292 1 -0.0209224821032449 7.615964 26.164981 5.447176 0 0 0
294 1 -0.00612286689440948 11.668345572021991 23.0462152768992 4.530869299631525 0 0 0
295 1 0.1660323029330617 8.41307 22.087881 2.95666 0 0 0
296 1 0.02592550032342929 7.21224 25.157566 4.638817 0 0 0
297 1 -0.01952521221811984 10.843706056997728 24.082300733364704 0.9536306371313239 0 0 0
299 1 -0.005181656841471427 12.103762836681375 24.085984752394033 5.369508860292445 0 0 0
300 1 -0.004689405116080769 12.598660109341099 22.09638894214205 4.011833555298458 0 0 0
281 1 -0.01349712496676076 11.498837259181999 22.99465524678075 0.49884045488817685 0 0 0
291 1 -0.005911659616738003 11.669984267565383 26.041711711727025 6.815930842622186 0 0 0
307 2 0.01648302672495512 12.494657673283658 21.996675020644318 6.4144706388138975 0 0 0
335 1 0.006670515407474813 12.905229881685683 22.87930849900835 0.412559351650135 0 0 0
334 1 0.00225045173421942 14.862741439429236 21.337931479600012 3.546201416718199 0 0 0
301 1 0.008691532638289442 16.274528049720463 21.430779022046366 3.8653552717645687 0 0 0
310 1 -0.0008592754468732316 13.089222383008805 24.91506531222141 1.7663348912578931 0 0 0
303 1 -0.004681474728988388 17.25348908418718 24.426329156239902 2.255279608707224 0 0 0
306 1 0.0004273133426205249 15.263190672115766 27.276866449144627 4.556633113981129 0 0 0
308 1 -0.00937255007373744 17.874095546751644 23.417583406263443 1.4583870209194056 0 0 0
309 1 -0.002178959091192762 15.943230061205607 26.266583225489487 3.8564046323867034 0 0 0
313 1 0.01161258210606987 13.858336201671491 27.46875503628338 4.320481944303593 0 0 0
314 1 -0.005972067062056657 15.878762921508494 24.692661196033146 1.9959338493898404 0 0 0
315 1 -0.008490096680091047 17.137535835129633 22.581707645365636 0.621995000645481 0 0 0
316 1 -0.00854559530453859 15.71736275623384 22.721374934030965 0.5251608611877494 0 0 0
317 1 0.01135300927243708 18.00968406015072 22.442186168665785 5.192597882185098 0 0 0
318 1 0.0002902183839032141 13.992421870921385 22.099289890340565 4.37761669830202 0 0 0
319 1 0.02362080976757837 15.72994338421198 23.176626009709267 5.569863729452815 0 0 0
320 1 0.02320219636721307 16.17320496813808 24.167036030109465 6.475330729653284 0 0 0
321 1 2.703040879207575e-05 14.376095063575063 23.177662323095763 5.216304343701872 0 0 0
322 1 0.001239278052200469 13.466073766507607 24.10566788383791 5.762247681213681 0 0 0
323 1 0.01577820045096095 16.658230513058164 22.317673329732187 4.865053435812604 0 0 0
324 1 -0.002054079871303842 15.115142923335478 23.74292691037007 1.2590046847147203 0 0 0
325 1 -0.00736921623675164 18.051659243876255 27.049083012863097 4.713093589894221 0 0 0
326 1 -0.004213261325459025 13.73840441165803 23.933488443972507 1.018032626119731 0 0 0
327 1 -0.006465080925791462 18.050919732024372 25.216108301067276 3.16025150419592 0 0 0
328 1 0.002005042800075439 15.230730066092903 25.553831211753476 2.875675100307909 0 0 0
329 1 -0.004594532743697689 17.341868526893464 26.217066808135876 3.859819909223452 0 0 0
330 1 0.003174752413906081 13.132216797922826 26.682416137367053 3.392638677727118 0 0 0
331 1 0.001089879448068889 13.84627727633177 25.726504927326975 2.639757074506305 0 0 0
332 1 0.003110603540146397 17.022620046153385 27.453527285215987 0.8009709391847273 0 0 0
311 1 -2.399100014484195e-05 13.946491874813614 25.142741302085955 6.6121919376262905 0 0 0
304 1 0.01674493728478671 18.398634729869393 23.285375755228806 6.2597488551917815 0 0 0
305 1 0.01865433002776373 18.334021629759444 26.92842510273972 0.5147822771404258 0 0 0
312 1 -0.0009505871447885862 17.355547302484382 27.91876101453561 5.565453773315423 0 0 0
333 2 0.02568570033384089 16.16639710196894 27.07197232141877 0.2530512549573878 0 0 0
302 1 0.01436132127997464 17.50240029705329 24.230197321158823 6.80940005691892 0 0 0
354 1 0.01153290442108192 18.995790955226383 21.709339823843354 4.493799556271309 0 0 0
525 1 -0.002832939349575396 15.965381814590431 28.061977891663645 5.408940034476274 0 0 0
1455 1 -0.001970611431746756 13.037592039809926 21.299542071589844 7.12940957572473 0 0 0
298 1 0.01176131941743873 15.257719330540187 25.05332401597413 7.125612598870239 0 0 0
386 2 0.07972714604490276 23.51096353821072 21.175250851384078 3.5797581546942454 0 0 0
368 1 -0.009678401341883875 19.275588828644885 23.34260955790939 1.5432124660349111 0 0 0
371 1 -0.008574295576106424 19.453304771144616 25.06046025977762 3.20145102100946 0 0 0
380 1 -0.01842348418515673 22.78569483492769 21.485572142029394 4.286460347114957 0 0 0
367 1 0.003587135665817646 19.488147645912978 27.516590967677086 1.1750115406244324 0 0 0
352 1 -0.008516662423417795 19.49531196894141 26.88547504952809 4.804306303217431 0 0 0
339 1 0.00495198613941235 23.515542231304444 22.984177903121484 1.582688388848173 0 0 0
340 1 -0.004166805451276723 20.785425099905094 22.667948183732932 5.943554189443143 0 0 0
341 1 -0.01062812247374135 24.160218836262302 21.897647629018078 0.8655962816336228 0 0 0
342 1 -0.00507862601429973 22.005489539411776 23.07840785368807 1.6022187464514486 0 0 0
344 1 0.009208337939827055 23.736696093928533 26.54396849494313 5.1692357166385445 0 0 0
347 1 -0.002088694842687979 20.338455609873733 21.900719960493994 4.86958422616382 0 0 0
348 1 0.0160339405471252 23.705099658731864 24.961475173322288 3.168366019565733 0 0 0
349 1 0.00411022576446532 24.49843350745622 22.759283088604313 5.526463511436472 0 0 0