C600_000 slab +z

11332 atoms
4 atom types

0.000000 56.353755 xlo xhi
0.000000 56.353755 ylo yhi
0.000000 156.335703 zlo zhi

Masses

1 12.011
2 1.008
3 14.007
4 15.999

Atoms # charge

1 1 0.002706 27.589464 5.572968 6.221808
2 1 -0.005008 31.797337 4.825634 6.225501
3 1 -0.011183 34.141722 5.740317 6.240891
4 1 0.001131 31.465609 2.386078 6.110053
5 1 -0.004854 33.724635 3.336975 5.815001
6 1 0.004910 35.567415 2.078945 5.661659
7 1 0.004447 32.053366 1.056882 5.782689
8 1 0.007299 33.419634 0.664697 5.404150
9 1 -0.003473 32.335460 3.556096 6.037208
10 1 0.002161 34.239938 1.972166 5.541540
11 1 -0.018712 36.628459 2.793456 5.849638
12 1 0.000756 34.643400 4.426932 6.048953
13 1 0.008417 36.084513 4.183890 6.063445
14 2 0.022475 39.961374 2.088883 6.172444
15 2 0.018209 37.705773 2.502472 5.852657
16 4 -0.501750 23.734662 8.752476 5.907411
17 1 0.276013 24.317075 7.402076 6.224122
18 1 -0.009536 24.817254 11.244665 5.499781
19 1 0.250795 24.807583 9.751411 5.579983
20 1 -0.009393 31.073707 7.946200 3.355553
21 2 0.020099 29.342686 6.728456 3.100972
22 1 -0.065802 29.458753 10.257466 2.302867
23 1 0.013449 29.339417 11.491665 5.891839
24 1 0.011637 28.408812 10.395753 5.691895
25 1 0.005668 27.999960 7.907538 5.980420
26 1 0.007480 28.902622 9.071234 5.906874
27 1 0.217328 28.811024 11.178897 1.627277
28 2 0.029759 26.934373 9.355008 1.668982
29 1 -0.034164 25.679728 7.124890 6.057600
30 1 -0.007703 30.302562 8.777983 6.140233
31 1 0.027407 26.167266 11.837709 5.149561
32 1 -0.047545 27.599157 8.546014 2.053547
33 1 -0.021276 29.756028 7.729958 2.941216
34 2 0.026629 27.244430 7.528118 2.154453
35 1 0.013006 26.986553 10.583514 5.385400
36 1 -0.065250 26.169359 9.352187 5.364189
37 1 0.049811 26.650406 8.090965 5.715115
38 2 0.011631 27.893148 10.960311 1.097436
39 1 0.008283 28.542572 6.630160 6.167857
40 1 0.014891 28.899690 8.780867 2.465356
41 1 0.036295 30.867189 10.396540 2.849821
42 2 0.027832 31.693614 7.112700 3.609674
43 1 -0.021929 31.627172 9.278749 3.318042
44 1 -0.067163 31.427731 11.800635 2.718766
45 4 -0.504901 35.211909 10.473978 1.899938
46 2 0.073681 33.412356 11.745690 2.384413
47 2 0.031183 32.573624 9.534591 3.799152
48 1 -0.050289 32.887971 12.003283 3.301693
49 2 0.040815 33.206977 11.336163 4.119282
50 1 0.338022 36.241773 9.846205 2.211054
51 1 0.021759 36.602934 11.187766 4.346952
52 2 0.086361 36.699643 9.117042 1.441940
53 1 -0.024110 36.992095 10.139994 3.478353
54 1 -0.009826 35.503915 12.104850 4.091094
55 2 0.083989 34.963034 12.070458 3.135145
56 1 0.022175 37.357776 11.374803 5.554517
57 1 -0.039943 38.430586 10.516887 5.857781
58 4 -0.491142 38.376702 8.203187 1.705079
59 1 -0.021092 39.345220 12.318958 2.402791
60 1 -0.098730 38.151162 9.404184 3.790934
61 2 0.051640 39.836478 7.992080 3.028431
62 1 0.362250 38.862803 8.449581 2.809840
63 1 -0.007325 40.499286 12.104591 3.189710
64 1 0.268014 38.836523 9.502256 4.971684
65 4 -0.542359 40.005486 8.598520 5.186404
66 1 -0.067411 42.416028 10.633769 3.660512
67 1 0.056143 42.575077 11.138487 4.991928
68 2 0.018288 41.206736 10.571291 1.811320
69 1 -0.021648 41.818437 12.225900 5.316043
70 2 0.031678 39.145479 11.766615 1.487709
71 1 -0.014149 41.373373 11.079537 2.788130
72 2 0.013884 43.222147 9.403533 2.143322
73 1 0.236552 43.314238 9.770148 3.186461
74 1 -0.146889 43.681583 10.689585 5.810821
75 2 0.161543 41.966769 7.202537 6.015574
76 1 -0.007432 43.826569 12.095399 0.334717
77 1 0.018399 45.905083 12.470226 4.054053
78 2 0.035044 49.253672 12.288176 2.072128
79 4 -0.493359 44.423249 9.151433 4.013901
80 1 0.558146 44.527296 9.716770 5.364023
81 1 0.020350 44.851451 11.414130 0.854609
82 1 0.026591 45.409085 12.281742 2.879569
83 1 0.060195 45.729771 11.031784 1.762003
84 2 0.023162 22.986412 18.585382 5.305092
85 1 0.257649 30.762534 12.777160 2.043673
86 4 -0.480430 29.400002 12.643066 1.457547
87 1 -0.051884 27.228107 18.620566 2.796205
88 1 -0.046043 27.436759 17.933593 0.472800
89 1 0.053314 26.747217 18.713612 1.501470
90 1 0.256419 28.242733 16.860886 0.735801
91 1 -0.067724 28.843718 17.710153 4.333524
92 2 0.087326 29.987837 14.678670 0.614669
93 2 0.069569 29.589825 16.926113 4.550704
94 1 0.019165 30.737069 13.397128 6.230563
95 1 0.029943 29.328604 12.943301 5.818523
96 4 -0.489167 28.708364 16.610084 2.108014
97 1 0.249642 28.169367 17.599861 3.162699
98 1 0.018959 28.433227 18.699407 5.326163
99 1 0.030801 31.024351 14.858051 0.977147
100 4 -0.564833 34.769152 16.628009 0.449361
101 2 -0.035605 34.764445 14.598663 0.628927
102 1 -0.058972 36.129547 16.630557 3.887004
103 1 0.202183 37.172515 13.573141 2.288964
104 1 0.613995 34.455580 15.599509 1.054399
105 1 0.212654 36.850363 15.470644 3.601654
106 1 0.023795 35.208386 13.056856 5.067485
107 1 -0.059951 31.583409 13.951417 1.756218
108 1 -0.081851 36.013992 18.749584 5.180305
109 1 0.003675 32.692309 15.904298 5.226616
110 4 -0.548575 33.537390 15.521494 2.250506
111 1 0.027238 33.798097 14.973635 5.544279
112 2 0.056573 36.751690 13.005833 1.397366
113 1 0.008107 36.002893 13.343402 6.233330
114 2 0.001401 33.802697 13.522396 1.591678
115 1 0.214154 33.093233 14.077890 2.208341
116 2 0.033342 31.547058 17.508200 5.913299
117 1 0.011490 32.385090 16.844891 6.065706
118 2 0.063508 32.016134 15.696269 4.362335
119 2 0.034962 32.062910 13.872575 4.185786
120 1 0.018689 36.616089 17.472788 4.940325
121 1 0.053488 34.062057 13.848373 4.784968
122 1 -0.023650 33.010397 13.536178 3.734621
123 3 -0.439339 36.331803 14.507799 2.701231
124 2 0.052062 31.535067 15.765279 0.641929
125 2 0.095367 35.267753 16.965075 3.322062
126 1 -0.016041 42.524270 14.003604 1.156431
127 1 0.034569 38.274023 16.194132 0.761931
128 2 0.010968 38.737246 15.277881 1.121766
129 1 -0.010367 38.518174 17.455473 1.248570
130 1 0.022251 38.857724 14.032357 4.119347
131 1 0.001645 42.859526 14.962705 3.435094
132 1 -0.050658 37.991024 15.067875 4.484699
133 1 0.015087 42.157943 14.935799 2.128209
134 1 -0.018546 41.077911 15.800979 1.903160
135 1 0.025641 41.425596 16.891503 4.056540
136 2 0.016883 38.706708 17.263430 3.401768
137 1 0.006323 38.337985 15.789218 5.630419
138 1 -0.012714 40.649918 16.738745 2.805564
139 1 0.054447 37.795986 18.601524 0.759190
140 1 -0.008043 43.193959 15.995911 5.637292
141 1 0.025554 43.575165 13.061012 1.397395
142 2 0.015831 42.024970 13.875081 0.132963
143 1 -0.003616 40.783547 12.681331 4.479328
144 1 -0.000719 40.119083 14.347215 6.154264
145 1 -0.056420 41.806525 17.919317 6.222163
146 1 -0.020772 37.645069 17.014056 5.824090
147 1 -0.018945 39.954324 13.727661 4.876953
148 2 0.086824 40.447333 18.694463 4.805007
149 1 0.004957 42.543360 15.923732 4.335430
150 1 -0.047089 38.447811 13.310703 2.910563
151 1 0.188628 39.374278 17.555249 2.541815
152 2 0.050260 40.549391 15.702787 0.968489
153 1 -0.004325 41.137639 17.899770 4.947629
154 1 0.005542 44.258638 15.125559 5.954058
155 1 0.031197 48.977587 14.460272 2.347434
156 1 0.009294 49.273996 15.754559 1.769883
157 1 -0.007396 48.377141 14.378105 3.643075
158 1 0.015109 48.742815 16.889153 2.384274
159 1 -0.011467 49.466086 13.307676 1.684351
160 1 -0.011098 47.930644 15.507555 4.269818
161 2 0.035218 47.313373 15.495253 5.199768
162 1 -0.002191 44.573859 14.184013 4.948463
163 2 0.027878 48.229930 13.361972 3.990054
164 1 0.004385 49.079594 18.185287 1.808920
165 1 0.176621 46.896275 18.200367 5.471534
166 1 0.002533 50.010288 18.331023 0.771797
167 4 -0.534081 46.627935 13.916289 0.303337
168 1 0.007569 49.977096 13.438266 0.386988
169 1 -0.002748 45.731262 13.316485 5.179396
170 1 0.013760 44.320778 13.169958 2.640619
171 1 -0.059807 47.543300 18.050744 4.208706
172 1 0.008512 44.004838 14.117544 3.696584
173 1 0.023806 48.097244 16.784678 3.711132
174 1 0.001977 50.111736 15.827451 0.637387
175 1 0.003547 50.506713 17.141556 0.165410
176 1 -0.019241 21.045271 22.140384 5.948274
177 1 -0.000548 23.894575 23.254310 5.237062
178 1 -0.001243 23.901042 22.532189 2.863474
179 2 0.019057 21.808021 20.657837 4.614033
180 1 -0.020320 21.869426 21.066818 5.598708
181 1 -0.003147 22.936317 24.253165 4.895831
182 1 -0.015043 22.352403 24.308146 3.596479
183 1 -0.000257 24.398099 22.418899 4.210706
184 1 0.005583 24.440060 21.685550 1.864574
185 2 0.021079 20.392418 22.725552 5.211251
186 1 0.012543 21.642767 24.876133 0.869295
187 1 0.007700 24.036769 21.865176 0.516759
188 1 0.001167 22.884437 23.528715 2.567549
189 1 0.021459 23.178610 22.942817 0.184538
190 1 -0.002676 22.528563 23.725682 1.197912
191 1 0.001353 25.262338 21.336259 4.538219
192 1 0.001171 25.334698 20.663055 2.155397
193 1 0.017601 26.845138 20.341270 6.081436
194 1 -0.004291 27.236577 19.458255 5.057251
195 1 0.025461 30.365511 23.402350 0.210922
196 1 0.019685 26.748997 19.574197 3.739694
197 1 -0.028705 26.855088 24.096100 3.557588
198 1 0.190701 27.716850 22.313993 1.817124
199 1 0.010171 25.969274 19.835134 1.154287
200 1 0.185985 27.666673 22.811365 3.164726
201 1 0.007718 25.843505 21.346789 5.857480
202 1 0.464824 29.141688 21.123635 3.203783
203 4 -0.545255 28.580131 22.091654 4.166067
204 4 -0.530240 28.842997 21.227000 1.756975
205 1 0.002563 25.748271 20.537440 3.505799
206 2 -0.022990 29.954670 20.481860 3.581734
207 1 0.002372 29.989694 24.866344 2.264056
208 1 0.020380 30.624956 23.700731 1.655287
209 2 0.055877 27.522100 24.132840 5.658528
210 1 0.000408 31.070813 24.306999 4.490798
211 2 0.048060 31.285797 24.591791 5.522418
212 1 0.003051 26.850474 24.629260 4.923721
213 1 0.017594 26.064824 24.896930 2.845756
214 2 0.038337 34.062118 19.032532 2.989228
215 2 0.047044 35.287944 19.115458 4.479822
216 2 0.055000 32.660239 22.586267 5.704910
217 1 -0.018602 37.228309 22.972842 4.129239
218 1 -0.002711 32.258600 20.019755 0.000000
219 1 -0.013563 36.668171 21.984178 1.883386
220 1 -0.009653 35.514127 23.989760 2.647568
221 1 -0.017780 33.159729 21.273751 4.070364
222 1 0.015758 31.818890 21.384060 0.424179
223 1 0.004351 31.459655 22.835915 2.403622
224 1 0.020041 34.576863 24.973356 2.416847
225 1 0.066548 33.164137 19.239067 0.908416
226 1 0.012424 31.674058 23.191803 3.848334
227 1 -0.016845 34.962623 23.006216 0.424456
228 1 0.048318 34.189271 24.098255 0.123314
229 1 0.009050 32.012449 21.643907 1.825630
230 2 0.069751 33.806051 20.686989 4.843213
231 1 -0.031988 36.018295 24.835030 4.933436
232 1 0.005580 35.717067 23.007386 1.640539
233 1 -0.010913 33.439767 19.565477 2.290695
234 1 0.014874 36.206453 23.913679 3.895925
235 2 0.047935 36.601387 24.876734 5.884002
236 1 0.001437 32.897963 20.822078 2.703751
237 1 -0.012011 32.548948 22.355811 4.633963
238 1 0.017136 36.717258 20.785065 1.128360
239 1 0.012600 37.381024 22.009145 3.124093
240 1 -0.078267 33.933486 25.025478 1.157939
241 2 0.020444 41.848914 19.054484 0.200098
242 1 0.002560 41.245568 24.293391 6.182788
243 2 0.072847 42.025934 24.032778 5.442893
244 1 0.013168 40.201033 24.401590 0.471678
245 2 0.030910 37.717460 22.863674 5.107901
246 2 0.033797 43.558200 23.344285 0.914875
247 1 -0.059829 41.606924 24.385035 1.103737
248 2 0.023953 39.540913 23.106376 5.502231
249 1 -0.060405 37.601581 19.746704 1.604794
250 1 0.258301 38.439429 19.973723 2.701847
251 1 0.007532 42.566180 23.584646 0.479296
252 1 -0.067554 38.391474 21.088210 3.458325
253 2 0.058843 39.005264 21.196197 4.326231
254 4 -0.515416 39.574346 19.034753 3.044701
255 1 0.244167 49.276605 23.208015 0.657860
256 1 -0.069446 48.397789 23.036276 1.635633
257 2 0.015651 46.315802 23.887360 4.988235
258 1 0.002186 48.410694 19.351353 2.258013
259 2 0.055492 46.908727 22.617554 3.964878
260 1 -0.016470 47.326462 21.712658 3.469511
261 2 0.093259 45.450416 21.308606 5.436317
262 2 0.014463 48.481818 22.607693 5.952423
263 1 0.160421 46.166155 19.341348 5.866074
264 1 -0.077135 46.004085 20.444872 5.033869
265 1 -0.012351 48.641777 20.618873 1.643322
266 1 0.018712 48.138277 21.734128 2.322288
267 1 0.005961 47.002619 20.483631 3.982291
268 1 0.005163 47.551053 19.247162 3.404081
269 2 0.102729 47.990156 23.934015 2.059404
270 1 -0.050947 49.833299 22.027212 0.006416
271 4 -0.493488 49.684741 24.628635 0.140365
272 1 0.611583 44.377339 24.934507 2.117558
273 4 -0.536710 45.504256 24.666373 2.570081
274 2 -0.062425 44.206960 24.946898 1.020493
275 4 -0.513059 44.791998 23.388837 6.234178
276 1 0.342675 45.721369 24.135672 5.952202
277 1 0.015019 49.557163 20.749146 0.582164
278 1 0.002793 50.246620 19.630558 0.131886
279 2 0.021901 50.180450 23.791747 4.672926
280 1 -0.024666 50.454503 24.258907 5.616656
281 2 0.073452 17.700319 31.250357 2.641349
282 1 -0.038738 24.770150 26.626899 0.445253
283 2 0.118941 19.127965 27.879800 0.017788
284 4 -0.448762 19.182296 27.967475 5.252089
285 1 -0.054000 20.100839 31.000278 2.400938
286 2 0.040209 22.284988 28.941151 5.387814
287 1 0.011869 22.461388 28.909625 4.328769
288 1 0.030364 22.874804 28.591986 1.331309
289 1 -0.099803 20.930746 26.182370 4.325091
290 1 -0.062558 20.963107 25.668552 1.886046
291 1 0.004674 23.789088 27.958800 2.278822
292 1 -0.026693 24.246694 27.399107 4.758650
293 1 0.006048 23.519224 28.080305 3.780354
294 1 -0.002969 22.444426 25.119364 5.866574
295 1 0.039579 21.400248 25.360190 3.274834
296 1 0.036614 21.007528 30.565916 1.296632
297 1 0.282888 20.551648 30.520861 3.658755
298 1 0.252490 20.025906 26.726242 1.589976
299 1 0.466279 19.793344 27.245283 4.072068
300 1 -0.009600 21.755523 29.784068 3.461046
301 1 0.030870 21.934846 29.617725 1.996938
302 1 0.017282 24.483010 26.737249 1.739019
303 1 0.030421 21.406756 26.022557 5.619184
304 1 -0.065646 19.873780 27.069698 0.259618
305 4 -0.493087 19.361103 27.549347 2.673311
306 4 -0.547387 20.007953 30.833331 5.061100
307 2 0.016098 24.084470 27.651393 5.841543
308 1 0.021288 30.190517 25.127728 3.712364
309 2 0.033055 25.277139 30.270655 6.169687
310 1 -0.002178 25.208315 26.404023 4.283869
311 2 0.077354 28.239236 28.419170 5.455321
312 2 0.051855 29.896870 26.565536 5.382076
313 1 0.002007 28.643446 27.016530 2.188707
314 1 0.025890 28.784354 27.149184 3.624606
315 1 0.029664 29.120580 25.646450 0.096640
316 1 0.007760 29.659527 26.304445 4.319098
317 1 0.012575 28.004458 28.099072 1.434343
318 1 0.255646 30.923403 31.242223 4.530080
319 1 -0.011638 28.150477 28.269421 4.346715
320 1 -0.056643 27.444069 30.611053 0.180343
321 1 0.283368 27.024808 30.452133 1.519895
322 2 0.055495 27.286228 30.236449 4.135975
323 1 0.007658 29.248107 25.887877 1.528876
324 1 -0.050073 27.451909 29.251707 2.158501
325 4 -0.476249 30.894685 29.787487 5.005213
326 1 -0.006296 25.319639 26.004109 2.817289
327 2 0.068500 29.842353 30.756693 2.842438
328 1 0.018852 27.631258 29.327311 3.609092
329 1 -0.024843 26.137285 25.826436 5.243192
330 1 -0.003989 37.006535 26.527772 0.782855
331 1 -0.003638 35.767676 29.690708 4.383545
332 1 0.053935 34.940177 25.676475 4.750058
333 1 -0.009501 36.422049 28.135935 2.501276
334 1 0.016919 34.452019 29.578306 2.338255
335 2 0.042890 32.715416 30.830290 1.903590
336 1 0.002427 35.257140 28.532849 1.764337
337 1 -0.131112 32.620414 26.807844 1.983799
338 1 0.006431 34.763148 30.156244 3.648107
339 2 0.078003 36.038241 30.204663 5.346476
340 1 0.009225 33.404144 30.107360 1.541602
341 1 -0.008330 35.114244 28.129771 0.426643
342 2 0.095960 31.860196 27.557458 1.718234
343 1 0.246860 33.416965 27.374090 5.695944
344 1 -0.067157 33.322895 29.788158 0.168650
345 2 0.047163 34.199650 31.061144 4.006712
346 1 0.011831 37.321477 27.153690 2.035973
347 1 -0.080887 34.228442 25.780381 3.465486
348 4 -0.488653 32.655904 27.506298 4.394225
349 1 -0.080086 34.437004 26.519276 5.812916
350 1 0.022376 36.566418 28.568639 3.865070
351 1 0.263830 33.200726 26.691514 3.261909
352 1 0.257555 32.962060 26.033194 0.928197
353 4 -0.580979 43.182701 25.226919 2.983240
354 1 0.259490 41.841408 25.057229 2.320712
355 1 0.012001 39.825405 31.203363 0.341635
356 1 -0.019787 43.349453 26.313693 6.168596
357 1 -0.030068 43.424494 28.770307 2.917623
358 1 0.025560 43.465699 29.445956 4.099953
359 2 0.044878 43.053807 27.777004 2.836997
360 4 -0.520936 39.831418 26.900574 4.935511
361 1 -0.008973 40.047290 28.772956 0.797818
362 4 -0.563629 40.925642 31.130001 4.162921
363 1 -0.069811 38.458581 26.794534 2.827859
364 1 -0.035137 40.209424 30.745662 1.722569
365 1 0.005729 37.887489 25.416595 0.455109
366 1 -0.018326 39.152314 25.173961 1.126714
367 1 -0.020600 43.174207 28.719562 5.403689
368 2 0.088250 43.485042 25.295554 5.718943
369 2 0.048798 42.203399 28.277521 5.270276
370 2 0.050287 40.474725 28.680242 2.922829
371 1 0.043814 39.441906 25.899568 2.344770
372 1 0.014183 40.286628 29.251782 1.975853
373 1 0.213063 41.123201 26.573468 4.120635
374 2 0.008231 41.525579 27.593099 3.895068
375 2 0.075074 37.748685 28.542577 5.607776
376 1 -0.078240 40.747158 25.683294 2.908082
377 1 0.265204 38.614788 27.271927 4.145927
378 2 0.022968 43.067605 28.263436 0.002333
379 2 0.039194 41.720251 26.028034 4.867488
380 1 -0.075065 37.656351 28.114556 4.626099
381 2 0.026247 47.652930 25.695337 5.493472
382 1 -0.012660 47.101387 30.573093 0.456660
383 1 -0.023132 49.319700 30.605201 1.767780
384 1 0.009961 46.443811 27.869477 0.674018
385 2 0.059947 47.005421 27.072944 1.201205
386 1 -0.005597 45.047228 27.635471 0.071946
387 1 0.008279 45.048286 30.997330 3.085279
388 2 0.017216 49.929074 30.269741 0.911382
389 1 -0.041738 45.522300 31.122994 0.505879
390 2 0.016079 47.416597 30.479200 5.632656
391 1 -0.016971 49.857436 30.599486 2.962739
392 1 -0.022384 47.480591 30.743627 3.229046
393 1 -0.017235 44.036453 28.446669 0.455017
394 2 0.053737 44.708679 27.155571 4.686132
395 1 -0.005977 48.808952 30.936235 4.043745
396 1 0.003653 44.033205 29.365220 1.684399
397 1 -0.000087 44.902586 30.478877 1.781075
398 2 0.018533 47.126277 29.706179 3.170505
399 1 -0.023000 47.854873 31.148877 1.773078
400 2 0.047576 48.909084 30.093923 4.816753
401 1 0.014379 46.861373 29.137960 0.687889
402 1 -0.019814 43.899836 30.951314 4.089387
403 1 -0.031610 44.223073 27.421486 5.611227
404 2 0.042592 49.520325 27.353679 5.885963
405 1 0.000726 51.700651 26.085142 4.399694
406 2 0.053746 52.233870 27.029109 4.196062
407 2 0.058912 50.908239 30.294118 3.257392
408 4 -0.541140 51.480527 30.500739 5.901232
409 1 0.002660 51.405088 25.407285 5.549534
410 4 -0.549656 18.445734 32.471082 5.970386
411 1 0.031332 18.614425 31.469063 1.986047
412 1 0.011162 18.614766 32.209254 0.957299
413 2 -0.048459 18.579953 32.155844 3.993650
414 2 0.032063 18.788468 32.826508 0.103318
415 1 0.625330 18.977334 31.911071 5.037576
416 4 -0.577134 24.394790 31.376622 0.860472
417 2 0.081965 19.604137 35.268167 6.134396
418 2 -0.002148 24.832675 33.012841 2.074585
419 1 0.249660 21.565801 33.556211 5.699675
420 4 -0.458265 22.654217 32.533178 5.544835
421 2 0.009748 21.050979 33.942781 4.791734
422 1 0.613554 25.105700 32.007204 1.628018
423 1 0.019784 30.977375 35.284581 3.062856
424 1 0.008013 30.946499 33.980909 3.628303
425 4 -0.396075 25.526422 37.356757 4.475218
426 1 0.006598 29.744068 33.184068 1.693040
427 1 -0.015878 28.446433 36.666011 4.087836
428 1 0.036301 28.316158 35.432149 4.797940
429 2 0.060203 27.178335 34.341411 3.279491
430 1 0.000164 27.754152 34.219129 4.204412
431 1 0.022361 30.457666 35.540094 1.781307
432 1 0.008751 30.817472 36.758071 1.184893
433 1 -0.002051 27.553875 33.094351 4.935173
434 1 -0.075839 30.289551 31.555936 3.408752
435 2 0.078602 27.034120 32.260855 4.440849
436 1 0.014359 29.746367 34.470625 1.068142
437 1 0.003625 28.314832 32.859616 6.155284
438 1 0.003795 29.036638 35.302563 6.010171
439 2 0.045594 29.342104 32.397321 1.095285
440 1 0.028462 30.311972 32.853222 2.919759
441 2 0.046923 27.910411 36.815955 3.081460
442 4 -0.596721 26.358941 31.505818 2.344109
443 2 0.031985 35.080154 36.043394 5.314748
444 4 -0.567099 37.379579 32.789513 5.098723
445 2 -0.050787 33.891326 32.031479 0.921942
446 1 0.005771 35.805526 37.483557 3.917175
447 1 0.594660 32.901183 32.565207 0.608636
448 1 -0.000048 35.912146 36.657517 5.035080
449 1 0.019676 37.140882 36.669314 5.699746
450 1 -0.067820 31.549660 32.213467 5.281345
451 1 0.017317 31.609144 33.596068 4.799249
452 1 0.004079 31.693392 36.250226 3.798014
453 1 -0.006239 32.889631 36.969354 5.780439
454 1 -0.002806 32.261597 35.925849 5.061540
455 4 -0.527274 32.717322 33.619819 1.196259
456 1 0.003809 32.325631 34.584587 5.545062
457 1 -0.006345 31.825387 37.565930 3.282382
458 1 0.000296 39.589864 32.625744 0.071830
459 2 0.083778 39.239969 35.162910 6.197048
460 1 0.643840 37.733579 33.927692 5.053341
461 2 0.331105 37.784187 34.106632 3.089975
462 4 -0.684832 38.075926 34.706322 3.760044
463 2 0.036776 40.107088 36.874538 5.742911
464 1 0.005858 39.056127 35.465169 0.277310
465 1 0.017615 38.171154 37.480052 5.279467
466 1 0.622715 41.123392 31.956664 5.442992
467 2 0.034547 40.442321 35.607859 1.888113
468 2 0.016215 42.152763 36.084614 0.285665
469 1 0.290887 40.671816 31.655738 2.740636
470 1 -0.027348 38.696852 36.832636 0.654883
471 2 0.113060 41.041188 33.711502 3.190052
472 2 0.020882 39.136681 37.247972 1.569022
473 1 -0.011301 40.033314 34.895084 1.151264
474 1 0.030631 40.169496 33.482289 1.154053
475 1 -0.071232 40.742665 32.968164 2.424343
476 4 -0.572461 41.007987 33.168503 5.548407
477 2 0.072513 43.010035 31.550277 3.781690
478 2 0.009021 43.731573 34.553510 1.136643
479 2 0.034209 49.619260 34.621799 5.963770
480 1 -0.009251 48.592861 35.031948 6.204934
481 1 0.355755 44.717051 35.123802 1.024866
482 1 -0.012337 49.122294 32.417643 4.732899
483 2 0.042080 48.468865 37.373008 1.010362
484 1 -0.026365 49.309343 37.377795 0.298177
485 2 0.036553 46.995017 36.594736 0.182060
486 2 0.036985 48.883049 34.661517 0.535597
487 1 0.001462 49.229052 37.499392 5.693151
488 2 0.058935 46.898858 34.365783 5.240885
489 2 0.037351 49.585430 34.298685 3.713443
490 1 -0.022011 46.254712 31.738671 3.554686
491 4 -0.699579 47.738620 36.563391 3.359592
492 4 -0.489794 45.665000 34.669776 1.680075
493 2 0.071904 46.449934 32.712907 3.144367
494 2 0.028621 43.997526 32.298193 5.687252
495 1 -0.011123 45.968237 31.993133 5.109485
496 2 0.030496 47.789279 32.231671 1.714234
497 2 0.027651 45.827502 33.103600 5.268600
498 2 0.347921 47.174159 36.428095 2.580552
499 1 -0.021242 47.493808 33.993632 6.120332
500 1 -0.004061 48.187081 32.552154 6.026760
501 1 -0.013040 47.008940 31.464844 6.052927
502 2 0.078726 45.588593 32.271654 0.651464
503 1 0.049368 48.306990 36.382423 6.079271
504 1 0.006580 48.820626 33.476333 3.741641
505 1 -0.015725 44.585273 31.429168 5.397247
506 1 -0.022384 55.148609 35.631854 5.772054
507 2 0.038488 55.160634 35.228037 4.794557
508 1 -0.004699 52.304043 34.399377 4.357328
509 2 0.067268 50.341889 37.357015 5.806976
510 1 -0.021369 51.137930 34.920948 0.557916
511 1 0.012802 50.731404 37.376787 1.097715
512 2 0.040491 56.244315 37.139075 3.811688
513 1 0.014590 55.751672 36.927804 5.944212
514 1 0.605741 52.036943 31.534847 6.191823
515 1 0.007742 50.718341 35.899804 1.608353
516 2 0.013661 50.877149 32.944774 1.714379
517 2 0.064764 51.847279 34.731991 5.336179
518 1 -0.005524 52.921027 33.764885 1.985821
519 2 0.051713 50.189296 35.567554 2.479814
520 2 0.034609 50.219397 32.469849 5.016583
521 2 0.039444 53.774247 33.185481 5.781519
522 1 0.026572 52.572168 34.103387 3.270627
523 2 -0.064653 52.315286 32.322862 5.385060
524 1 -0.023005 51.733326 33.389510 1.137958
525 2 0.051598 53.951498 34.090319 1.677353
526 4 -0.473721 52.710813 37.355183 3.259244
527 1 0.271619 1.575456 41.439795 5.385670
528 2 0.068668 1.980426 41.378269 3.241416
529 4 -0.501869 2.075309 42.820751 5.521058
530 2 0.034352 0.869177 39.271504 2.856331
531 1 0.030144 0.355983 38.927566 4.998630
532 1 -0.002959 0.925932 39.664023 3.905059
533 1 -0.062903 1.547472 40.861743 4.132161
534 2 0.044017 22.082488 38.477173 5.483199
535 1 -0.008002 22.477958 40.600552 5.584941
536 2 0.034312 21.992143 40.841508 4.652910
537 2 0.059316 22.723872 43.134278 5.008481
538 1 0.026765 23.132449 42.915092 5.989485
539 1 -0.005421 22.590862 39.318228 6.006082
540 1 0.004723 29.110596 37.751794 4.675783
541 2 -0.006629 25.894808 39.301005 4.955048
542 1 0.324243 25.848592 38.232799 5.318751
543 1 0.008414 29.661929 40.127629 4.827036
544 1 0.254130 29.919711 42.576584 4.887678
545 1 -0.034159 30.996957 39.307521 0.152324
546 2 0.026717 28.803891 39.325879 3.073848
547 2 0.083093 29.001077 41.615590 3.321109
548 1 -0.028172 29.181844 39.043843 4.083856
549 2 0.061469 27.000643 42.887368 5.973887
550 1 -0.002277 29.719153 37.600112 5.996639
551 1 -0.088127 29.513457 41.451393 4.290040
552 2 0.033684 26.517611 40.624563 5.815254
553 1 -0.061960 30.506683 42.478853 6.207935
554 1 -0.019322 30.204111 39.972103 6.128449
555 2 0.097194 31.295637 42.748568 0.158167
556 1 0.013450 31.523705 39.018255 1.460230
557 1 -0.083035 31.432144 41.695184 0.492223
558 1 0.004095 31.412640 37.759947 1.963901
559 1 0.028915 32.141060 41.423943 1.662126
560 1 0.290933 34.008167 43.051007 5.977556
561 2 0.036210 36.775295 38.835786 2.535772
562 1 -0.003651 36.908697 38.247347 3.487249
563 2 0.064069 32.482670 43.563940 2.119187
564 1 -0.009418 32.134378 40.053885 2.203730
565 1 0.011544 32.701277 39.835571 3.469086
566 1 -0.054106 33.261416 40.974338 4.187500
567 4 -0.511195 33.492004 43.378389 4.636219
568 4 -0.579900 36.957994 42.358599 6.180518
569 2 0.082321 37.518189 42.125224 1.632083
570 1 -0.011026 33.412765 39.372143 6.092994
571 2 0.041007 34.928700 37.587451 3.287116
572 1 -0.006418 32.573021 38.534753 3.968535
573 2 -0.044069 35.995420 40.872718 5.264047
574 1 -0.047481 32.625844 42.534338 2.417346
575 1 0.000026 32.955261 38.257371 5.288204
576 4 -0.559601 35.327543 41.869154 0.595335
577 1 0.041085 33.492100 40.663143 5.584100
578 1 0.263992 33.146686 42.241246 3.663231
579 1 -0.144468 37.114806 39.001812 0.293258
580 1 0.645045 36.991527 41.341372 5.504251
581 2 0.023821 40.712428 37.672194 2.689602
582 1 0.603084 43.560181 42.166131 4.451798
583 1 -0.013775 43.594946 43.762329 1.342978
584 1 0.253194 39.547675 39.797140 4.903332
585 1 -0.003836 40.419087 41.836359 5.570427
586 2 0.073315 39.592998 42.432445 5.148247
587 1 -0.017316 43.243086 42.531273 0.215312
588 2 0.053631 42.508704 39.836519 3.009466
589 1 -0.019179 38.903545 43.459708 2.881923
590 1 0.050090 38.134246 38.203240 4.135952
591 2 0.065479 41.187172 42.010934 2.979415
592 2 0.056457 38.421273 43.220845 3.891303
593 1 -0.043338 40.765779 38.567954 3.249891
594 1 -0.030027 40.697503 41.029950 3.166187
595 1 -0.038532 41.474768 39.764528 2.595023
596 2 0.031751 41.348588 38.417979 4.179452
597 2 0.072827 41.630893 40.202532 4.905158
598 2 0.048248 41.032841 38.946441 6.027715
599 1 -0.058845 39.917656 39.042969 6.118243
600 1 -0.017504 38.491602 42.723966 1.646210
601 2 0.032438 38.897767 39.575631 2.753739
602 2 0.017874 43.645018 41.577255 0.659578
603 2 0.035004 43.549130 38.401142 0.602989
604 2 0.005530 40.168139 40.063984 0.287865
605 4 -0.590373 42.352459 43.078366 4.568720
606 1 0.004728 39.332275 42.605280 0.522992
607 1 -0.005212 40.758635 42.998353 0.650340
608 1 -0.008942 39.359693 37.584390 6.187404
609 1 -0.041601 40.678947 40.678665 4.664623
610 4 -0.609992 38.213992 40.563617 5.159624
611 2 0.009768 41.436998 39.787668 1.464385
612 2 0.040938 37.727770 39.675447 0.824249
613 1 0.229794 41.626631 42.793564 5.877059
614 1 -0.053197 39.264829 39.024622 3.688813
615 2 0.032551 39.669133 41.085668 2.859982
616 4 -0.597846 43.803674 41.267916 5.243036
617 1 0.011554 48.679088 38.589790 5.307954
618 2 0.020921 45.333348 41.854862 0.416929
619 2 -0.058510 44.143211 42.246155 3.495460
620 2 0.033960 49.392813 39.403744 5.070250
621 2 0.047528 47.877634 39.484558 2.439321
622 2 0.016120 46.603410 43.708793 3.822300
623 1 -0.005508 47.293189 41.097290 3.992373
624 2 0.119165 45.448391 39.689865 4.563150
625 1 0.021400 46.564689 38.004913 6.172364
626 1 -0.018414 47.912541 42.159659 4.966326
627 2 0.030613 45.462708 43.668520 5.487658
628 4 -0.591714 45.931645 38.094456 3.081092
629 1 -0.002912 47.219668 42.981127 0.414732
630 1 -0.022709 49.606052 40.551690 3.079400
631 2 0.039718 49.028643 42.121236 5.013081
632 1 -0.016010 48.297226 40.320118 3.117228
633 2 0.027754 46.576868 41.622807 3.295464
634 1 -0.004154 48.448403 40.879907 0.426528
635 1 -0.006508 49.402934 39.849408 0.648780
636 1 -0.015929 47.434763 43.553644 4.573609
637 2 0.032407 46.719350 39.519573 0.272259
638 1 -0.088416 47.203946 38.615940 5.049066
639 2 0.040132 50.050640 41.366025 3.693316
640 1 0.606198 46.854415 37.705616 3.768686
641 2 0.026379 49.198559 42.655978 1.440641
642 1 -0.026566 48.405716 42.229993 0.829974
643 1 0.011519 46.514129 39.942784 4.846263
644 2 0.039978 45.063957 39.308312 0.328315
645 2 0.069131 49.758385 37.931104 3.028089
646 2 0.025630 44.220255 43.358525 2.235717
647 1 0.275892 54.428724 41.551746 5.571021
648 2 0.021763 54.806478 42.123874 4.687103
649 2 0.013342 52.030351 39.291656 3.858619
650 1 0.326656 51.921738 38.330587 3.224399
651 2 0.027923 51.357705 40.041566 1.552060
652 1 -0.069732 50.597066 38.273305 2.374582
653 1 -0.010819 50.342772 39.802907 1.883825
654 4 -0.502302 54.105754 40.144331 5.389100
655 4 -0.586803 51.779883 43.304151 5.703147
656 1 -0.003960 56.258754 37.602788 4.829034
657 2 0.366010 51.568765 41.090828 6.165045
658 2 0.126135 52.899141 37.705346 5.549408
659 2 0.026531 51.584624 37.665893 0.421622
660 2 0.072903 2.630147 45.363070 6.172647
661 4 -0.575240 23.109086 45.586240 4.792127
662 2 -0.006315 23.624276 45.385157 2.718469
663 2 0.048895 22.945635 48.081417 6.026650
664 1 0.615410 23.723899 44.805816 3.691089
665 2 0.080195 24.737846 47.996816 5.583880
666 4 -0.521476 24.622972 43.987300 3.804584
667 2 0.010912 26.314067 44.393050 5.578352
668 1 -0.041023 29.106951 49.905026 5.379539
669 1 0.296648 28.482651 49.101924 4.444408
670 4 -0.491862 29.310061 48.172933 3.647749
671 2 0.092329 26.636709 48.545845 3.390586
672 1 0.251676 30.219339 45.091159 5.123160
673 2 0.048317 30.111270 46.076496 4.719574
674 4 -0.485205 26.547525 46.358247 5.389140
675 1 -0.036137 27.115042 49.190845 4.153423