C700_000 slab -x

10582 atoms
4 atom types

0.000000 153.159306 xlo xhi
0.000000 56.144225 ylo yhi
0.000000 56.144226 zlo zhi

Masses

1 12.011
2 1.008
3 14.007
4 15.999

Atoms # charge

1 2 0.030456 35.841831 3.442144 5.754027
2 2 0.026767 37.957723 4.814909 5.744393
3 1 -0.016919 35.435476 4.214173 6.389360
4 1 0.000501 37.613289 5.468941 6.554155
5 1 0.025700 36.198157 5.312548 6.876205
6 2 0.029611 39.508144 6.275156 6.946138
7 2 0.027464 33.637555 2.417498 5.564199
8 2 0.035866 29.695797 5.370674 5.579213
9 1 -0.020128 29.601783 6.229899 6.281448
10 2 0.051632 32.069969 6.140971 5.141197
11 2 0.022602 31.595870 0.810925 6.252058
12 1 -0.021069 33.245771 3.080545 6.315748
13 2 0.020185 27.690009 4.489158 6.449900
14 1 -0.019012 31.258991 1.610845 6.832527
15 1 0.006176 34.093990 4.115353 6.791501
16 1 0.004341 32.023041 2.840276 6.990969
17 1 -0.010814 31.899924 6.985223 5.863857
18 2 0.011882 34.749021 9.774584 6.605466
19 2 0.027306 35.877207 13.742300 4.497480
20 1 -0.000641 29.049311 12.905541 6.742366
21 2 0.021093 34.045126 12.452598 3.545912
22 2 0.023747 33.860368 7.682099 5.515588
23 4 -0.439516 31.011228 7.170096 2.574705
24 2 0.059385 28.739562 7.199930 3.724554
25 1 0.008840 30.639934 7.173738 6.506645
26 1 0.002948 33.813519 13.778035 5.267174
27 1 0.006251 28.663477 13.554575 3.027735
28 1 -0.032337 33.408175 12.731981 4.375019
29 1 -0.011089 29.851520 13.496247 2.201063
30 1 0.314643 31.099091 8.342569 2.962713
31 1 0.005009 32.710454 9.136898 6.763490
32 1 0.010049 28.870234 8.247800 4.134862
33 1 0.014360 27.638467 12.566758 2.963261
34 1 0.004542 30.412014 10.293621 4.307142
35 1 -0.004653 31.646354 13.879501 6.448173
36 2 0.022624 30.024935 12.728503 1.427833
37 2 0.017166 32.227819 10.505474 3.123485
38 2 0.001208 32.017987 8.926138 2.544700
39 1 -0.031891 31.684711 10.930409 3.946855
40 1 0.003607 32.125956 12.101707 4.607771
41 1 -0.018713 32.950384 7.876170 6.018191
42 1 -0.007397 31.283755 12.698640 5.737742
43 1 -0.004395 29.960904 12.163824 5.832975
44 1 -0.048137 30.019204 8.984477 3.860383
45 1 0.000616 29.513124 10.944736 5.232229
46 1 0.002041 28.324648 10.179081 5.676613
47 2 0.023649 28.795596 11.371906 1.360487
48 1 -0.000288 27.925828 8.788840 5.050132
49 1 -0.007955 27.878658 11.415040 2.084886
50 1 -0.000104 27.375618 10.468285 6.584506
51 2 0.029775 27.123637 9.504226 1.511605
52 4 -0.519958 20.515958 12.385804 3.943799
53 2 0.020137 26.338723 7.118765 4.870534
54 1 0.005178 26.327701 13.538778 4.796974
55 1 -0.013267 27.038489 10.346124 2.161461
56 1 -0.014764 23.814093 9.201782 3.803490
57 1 0.003060 23.595928 10.349014 4.643451
58 2 0.030041 23.106417 8.353876 3.836940
59 1 0.014990 22.437772 10.407847 5.471684
60 2 0.008903 21.492567 13.150631 2.254202
61 1 0.002420 25.671847 11.382477 3.876864
62 1 0.004100 25.159906 13.589332 5.582381
63 1 -0.044831 20.469712 9.337262 6.489762
64 1 -0.024477 24.611324 8.145986 6.831438
65 1 0.001909 24.256480 12.520899 5.548740
66 2 0.022095 24.269154 7.266601 6.221662
67 1 0.016934 26.510418 12.532726 3.882183
68 1 0.005412 25.869722 10.208268 3.019459
69 2 0.021390 25.081876 8.222919 2.365968
70 1 0.001853 25.796034 8.653679 6.389424
71 1 -0.024562 26.670289 8.108469 5.335303
72 2 0.067676 21.606676 8.361398 4.977455
73 1 0.026163 22.177230 11.506424 6.299711
74 1 0.007938 23.105909 12.590309 6.284970
75 1 0.612894 21.189621 13.236749 3.365825
76 1 0.020853 21.489083 9.333457 5.570666
77 1 -0.019304 24.910604 9.152306 2.999445
78 1 0.003104 24.504919 11.452214 4.630577
79 4 -0.506627 19.835829 7.061530 5.822253
80 4 -0.519744 13.459366 13.490710 4.298234
81 4 -0.434705 16.459420 12.732145 6.823559
82 1 0.628289 19.751108 7.965380 6.679874
83 2 0.089122 17.022977 13.593891 3.354287
84 1 0.290858 17.381231 13.516631 6.441544
85 1 0.611077 17.990681 12.054678 1.772761
86 4 -0.466552 17.325293 11.115085 2.149631
87 4 -0.504145 18.850355 13.255931 1.252938
88 2 0.027711 18.058322 13.169790 5.590324
89 4 -0.497057 6.462898 12.338565 3.027254
90 1 0.572293 6.151634 12.489227 1.540293
91 1 -0.054145 6.729140 13.893258 5.031682
92 1 0.608362 12.293043 13.292103 3.999362
93 2 -0.004702 11.711770 12.516837 4.597402
94 1 0.256655 6.744561 13.647533 3.669841
95 2 0.079491 9.045194 13.126494 1.721447
96 2 0.038672 10.674205 13.796590 0.017446
97 4 -0.443580 6.104549 11.517229 0.794682
98 2 0.065716 6.392272 13.184196 5.798489
99 1 -0.003566 8.710238 13.896601 1.020352
100 2 -0.052478 5.790133 13.467885 1.203376
101 1 0.031207 42.442267 21.049951 2.888015
102 2 -0.012470 47.190602 20.986635 3.179762
103 2 0.021510 42.892452 20.951237 6.568443
104 2 0.031390 44.991754 17.497696 6.572492
105 2 0.083618 45.578401 19.829989 6.493539
106 1 -0.063929 42.992886 20.135870 1.877522
107 1 0.007311 41.965115 19.018014 1.519808
108 1 0.243863 44.339359 20.312613 1.495270
109 1 0.002325 39.161815 20.648394 7.013933
110 1 -0.005484 40.573601 19.146805 1.694197
111 1 0.000790 38.126986 18.613841 1.066425
112 2 0.096051 36.589767 15.918988 5.750011
113 2 0.028392 39.263928 20.534452 5.961290
114 1 0.017393 35.864674 20.930676 3.164409
115 1 0.012328 39.441250 18.193420 1.009011
116 1 0.021493 34.612716 16.241829 6.647156
117 1 -0.016119 35.173982 14.414906 5.113089
118 1 0.027487 36.310988 20.078753 2.161212
119 4 -0.547943 35.095536 18.231214 4.280764
120 1 -0.033394 35.356094 19.234703 1.515533
121 1 -0.000631 40.118600 20.279530 2.533575
122 1 0.033535 34.452394 21.036474 3.486303
123 1 0.005532 35.595991 15.526459 5.763737
124 1 -0.008085 36.993045 17.817335 0.193312
125 1 0.065395 35.848792 18.328853 0.749634
126 1 0.006873 37.694631 19.740562 1.957955
127 1 0.002889 38.689789 20.439075 2.720153
128 2 0.074568 38.363268 18.267518 6.296464
129 1 -0.006680 29.387277 15.545835 4.128846
130 1 0.010835 29.269594 16.626068 5.073396
131 1 -0.039674 30.304805 17.607565 5.247953
132 1 0.041121 30.164604 18.666275 6.164222
133 1 -0.015160 32.053302 20.449605 3.248765
134 1 0.030126 30.582527 15.458131 3.379003
135 2 0.060578 31.198429 18.378673 2.446580
136 2 0.069195 32.497219 16.205312 3.003256
137 2 0.077437 28.482033 20.808411 4.359119
138 1 -0.091947 31.628995 16.383090 3.644632
139 1 0.008320 28.352815 14.582118 3.997515
140 1 0.274588 31.525981 17.342323 4.542130
141 1 0.007012 27.184661 14.643219 4.775998
142 1 0.010317 33.336703 15.593696 6.987367
143 1 -0.020605 31.198236 19.581918 6.544949
144 4 -0.486271 32.973805 18.496999 1.336882
145 1 -0.001419 32.911596 14.504756 6.170641
146 1 0.337894 33.777912 19.320567 1.817976
147 1 -0.007454 28.848803 18.878935 6.740745
148 1 0.002063 27.795576 17.914736 6.615697
149 1 -0.021009 33.389094 20.281487 2.919979
150 2 0.112306 32.208617 19.503425 6.171709
151 2 0.039792 31.691076 14.408525 1.722809
152 1 -0.014230 30.831789 14.447277 2.365895
153 4 -0.528186 29.783994 19.728457 2.884587
154 2 -0.055076 33.893771 16.705760 3.685722
155 1 0.613145 34.012107 17.676511 4.160716
156 2 0.059137 27.124454 18.778229 3.512240
157 4 -0.597877 32.711796 18.177238 4.831379
158 1 -0.000464 27.992741 16.753951 5.726764
159 1 0.367359 30.988377 19.472333 2.758569
160 1 -0.002152 27.011374 15.763262 5.592243
161 1 0.003415 21.939189 19.632411 6.627458
162 1 0.046060 21.151122 16.673766 0.560057
163 1 -0.003160 25.180907 20.996832 5.399453
164 1 0.000771 23.957475 18.803832 4.931975
165 1 0.256799 23.782084 21.053742 1.200942
166 2 0.066053 25.954071 16.859090 2.920752
167 1 0.002368 25.090237 18.490056 4.123992
168 4 -0.620850 21.571530 14.604403 3.914461
169 4 -0.461563 24.981216 14.936233 1.977651
170 1 -0.052482 20.747775 16.165975 5.629580
171 1 -0.000363 25.822838 15.839285 6.389438
172 1 0.003374 24.973933 14.688230 6.403664
173 1 -0.001607 24.078924 20.070796 5.589281
174 1 0.021577 26.331891 20.467005 4.689803
175 1 -0.017733 26.268212 19.233167 4.025177
176 1 0.329407 24.068663 15.111238 2.817322
177 1 -0.022901 23.987576 16.418463 3.612984
178 1 -0.007018 21.948092 18.855385 1.449636
179 1 -0.004392 21.008656 17.770062 1.485428
180 1 0.006658 22.948776 17.927975 5.204669
181 1 -0.054620 22.836382 16.716135 4.414625
182 1 0.293422 21.748489 15.844126 4.695706
183 1 0.006597 20.850606 17.431009 6.277384
184 1 -0.007533 21.881901 18.359690 6.021201
185 1 0.008914 21.822717 20.053183 2.220706
186 1 -0.001959 22.940088 20.566354 6.276559
187 1 -0.003655 25.075874 17.206556 3.505420
188 1 -0.002730 20.704110 20.103105 3.086925
189 1 -0.064606 23.961677 19.904438 0.506439
190 1 0.020432 23.079180 18.811105 0.550452
191 2 0.037362 23.508586 14.194372 3.164594
192 1 0.020274 14.527393 18.112111 6.866328
193 1 0.035389 18.056228 20.891751 0.478237
194 1 -0.003837 18.668867 15.731155 6.722048
195 1 0.016968 14.004592 20.960651 4.763161
196 1 -0.071644 20.045528 15.800001 0.492429
197 1 -0.000907 19.927180 17.875932 2.365231
198 1 -0.007038 19.806677 18.973518 3.217994
199 1 -0.003751 19.175422 15.666372 1.617566
200 1 0.002789 16.840332 20.422234 2.640732
201 1 -0.000386 19.106194 16.788190 2.511108
202 1 -0.092820 17.507468 14.496854 2.967084
203 1 -0.019109 16.759824 17.869525 0.371802
204 1 -0.001130 19.678515 15.309213 5.864834
205 1 0.012788 15.034925 20.339607 4.068277
206 2 0.023379 14.994716 15.711555 0.625997
207 1 0.019867 17.290139 15.712488 3.687816
208 2 0.082537 14.106556 16.091322 6.321775
209 1 -0.001645 14.694039 17.437545 1.921478
210 1 -0.036755 16.242188 15.796380 4.591261
211 1 -0.008903 16.828702 18.005579 5.288303
212 1 0.274876 18.475959 14.493510 1.969647
213 1 -0.008367 15.451280 19.227472 6.877847
214 2 0.087524 15.603256 15.010086 4.812720
215 1 0.001780 18.611435 20.271061 4.924125
216 1 0.004347 15.909465 18.223702 1.464781
217 1 -0.001738 17.500953 20.277526 5.862739
218 1 0.004323 16.072475 19.272106 2.408958
219 1 -0.005470 18.772516 19.089515 4.123148
220 1 0.017684 14.917848 19.137448 3.297913
221 1 -0.016652 18.133984 16.833855 3.514321
222 1 -0.000114 16.587513 19.134546 6.038629
223 1 -0.017588 14.820550 16.916252 6.251759
224 1 0.007732 15.950755 16.923367 5.367689
225 1 -0.011585 14.420162 16.169212 1.386921
226 1 -0.003033 17.965746 17.980159 4.393386
227 1 0.032352 13.968102 18.178952 2.973989
228 2 0.099241 14.143204 14.248656 2.211755
229 2 0.075969 19.611511 14.336338 5.309239
230 1 -0.080724 13.569452 15.178551 2.067303
231 1 0.592828 10.832004 16.016355 5.816598
232 4 -0.580327 11.666122 16.920120 5.746198
233 4 -0.558235 12.328523 20.487223 1.783841
234 1 -0.005158 7.769997 17.426048 5.334590
235 1 -0.016732 7.784871 16.313850 0.940506
236 1 0.017718 7.819037 14.914850 1.505673
237 1 0.585952 11.220472 20.202014 2.207022
238 1 0.023358 7.991005 17.510289 1.655983
239 1 -0.011314 7.463467 19.665583 4.414090
240 2 0.064063 9.624459 17.876136 6.895787
241 4 -0.580376 11.526816 14.093910 2.955864
242 1 0.010263 7.777652 19.155597 3.147280
243 1 -0.000469 7.693579 18.656498 0.872609
244 1 0.010921 7.235741 16.393405 6.138247
245 2 0.075764 10.661209 16.399129 1.336627
246 1 -0.012233 6.534394 20.774459 1.760117
247 1 -0.008668 6.800493 20.945397 4.318737
248 1 -0.142741 11.581798 16.526365 2.010592
249 2 -0.051435 10.497316 20.869953 2.696412
250 1 -0.001338 12.612367 18.208393 3.397524
251 2 0.003216 10.655221 15.449539 4.869089
252 1 0.306752 11.589067 17.754688 2.448647
253 4 -0.589237 10.574296 18.794581 2.042546
254 1 0.025953 8.107859 17.789241 3.015932
255 1 -0.008189 7.561511 18.847600 5.544876
256 1 -0.002824 10.832743 19.560054 4.633341
257 1 -0.005897 7.969542 16.938468 4.042696
258 1 -0.025330 10.692941 20.855556 5.198288
259 1 0.314123 12.264022 15.274198 2.378328
260 1 0.005173 12.777085 20.397200 4.880865
261 1 0.071334 12.149254 19.263139 4.274719
262 1 0.008165 7.559664 15.642948 3.914691
263 1 -0.059257 7.219984 14.772676 2.851893
264 2 0.060841 9.968982 18.989328 4.361577
265 1 0.001646 7.387357 19.646424 1.838135
266 1 -0.006262 6.977337 19.172106 6.801861
267 1 0.013160 7.155164 15.274124 5.217341
268 4 -0.432641 49.012781 21.865682 3.121038
269 1 -0.026004 42.141819 28.037041 3.785938
270 4 -0.451870 46.690204 21.695683 6.376509
271 1 0.006681 41.397818 25.072868 1.568828
272 1 0.010917 41.380473 26.964167 3.144085
273 2 0.021399 43.116515 26.184932 2.008855
274 1 -0.035082 43.398768 21.996380 3.433814
275 1 -0.002559 41.894006 25.168717 5.873708
276 2 0.186931 46.151333 21.111952 1.448779
277 3 -0.533117 45.143809 21.177122 1.907942
278 2 0.047058 46.247877 26.964505 5.751497
279 2 0.023876 43.092153 24.117461 0.518517
280 1 0.001033 43.683526 24.063403 4.633812
281 1 -0.014395 41.377088 22.985167 0.125217
282 1 0.014157 44.159881 26.097842 6.050172
283 1 0.229929 45.640442 23.111329 3.432811
284 1 -0.024003 42.100226 26.091625 2.256117
285 1 0.594406 47.783763 21.953378 3.110837
286 4 -0.505647 47.020619 23.254896 2.932275
287 1 -0.030046 45.074637 24.074694 4.241896
288 1 -0.003184 42.831057 23.016268 4.229305
289 1 -0.005274 43.258369 25.056513 5.535070
290 1 -0.027085 43.733307 27.095935 6.929657
291 1 -0.003282 41.429791 26.176543 6.810552
292 1 -0.020923 45.543342 26.164981 5.447176
293 2 0.093955 46.996288 25.188875 4.279020
294 1 -0.007374 41.455156 23.123196 4.530837
295 1 0.167076 44.746237 22.087881 2.956660
296 1 0.026226 45.947066 25.157566 4.638817
297 1 -0.016152 42.002085 24.008214 0.745118
298 1 0.008032 37.864129 25.306494 6.996601
299 1 -0.003411 40.987912 24.279470 5.241353
300 1 -0.002069 40.538704 22.173512 3.973832
301 1 0.018553 36.797889 21.557433 4.009464
302 1 0.024478 35.601065 24.479906 6.873802
303 1 -0.007243 35.774185 24.500777 2.159409
304 1 0.008799 34.693405 23.625011 6.263834
305 1 0.020968 34.851444 27.106895 0.409556
306 1 -0.001649 37.857730 27.465655 4.444250
307 2 0.019143 39.955438 22.603602 6.921842
308 1 -0.007914 35.034288 23.537961 1.433675
309 1 -0.002527 37.203560 26.496054 3.638087
310 1 -0.001170 39.963111 24.961247 1.697425
311 1 0.001920 39.222731 25.197876 6.649219
312 1 -0.002636 35.788405 27.849638 5.685078
313 1 0.011673 39.264327 27.650526 4.179338
314 1 -0.004916 37.156408 24.649239 1.994587
315 1 -0.008452 35.729549 22.722376 0.573280
316 1 -0.008400 37.152373 22.794631 0.436634
317 1 0.010129 35.044336 22.719016 5.237606
318 1 -0.004608 39.131590 22.298309 4.183516
319 1 0.020941 37.354151 23.392776 5.539610
320 1 0.022985 36.957940 24.401809 6.411398
321 1 -0.002909 38.674695 23.333512 5.062732
322 1 -0.000789 39.593456 24.258947 5.653198
323 1 0.009722 36.365396 22.571918 4.910619
324 1 -0.002927 37.850237 23.752661 1.146306
325 1 -0.007058 35.092499 27.032745 4.815966
326 1 -0.002821 39.279120 23.885533 1.102079
327 1 -0.005945 35.148616 25.283014 3.150800
328 1 -0.001471 37.827231 25.710161 2.663773
329 1 -0.007247 35.801391 26.277946 3.863287
330 1 0.000861 39.947091 26.769617 3.316423
331 1 0.000955 39.219663 25.836416 2.512689
332 1 0.008718 36.175736 27.635301 0.669262
333 2 0.028732 37.049505 27.264635 0.129004
334 1 0.003909 38.207617 21.353458 3.722582
335 1 0.007136 39.902976 22.864096 0.255063
336 1 -0.009881 41.035144 21.200708 3.047385
337 1 0.007664 27.476841 22.519570 5.305794
338 2 0.047888 27.670488 24.376100 2.422181
339 1 -0.000858 29.425342 23.275828 1.752859
340 1 -0.001315 32.399368 22.897557 5.935579
341 1 -0.005918 28.657988 22.134384 1.117472
342 1 -0.005635 30.870375 23.379211 1.684166
343 1 0.032998 29.861777 26.125363 0.247786
344 1 0.010601 29.421865 26.870345 5.177788
345 1 0.010841 27.565395 27.435833 1.314426
346 1 0.008532 27.365188 25.267496 6.263935
347 1 -0.002070 32.720621 22.027150 4.910932
348 1 0.012992 29.477184 25.217959 3.313900
349 1 0.003792 28.622124 23.297154 5.493760
350 1 -0.010277 33.048317 24.405128 2.443417
351 1 0.000565 30.037590 27.166285 1.182504
352 1 -0.010392 33.687437 26.957335 4.968961
353 1 0.006334 28.881737 27.838703 1.692823
354 1 0.020016 34.071259 21.876542 4.613156
355 1 -0.021937 27.541661 21.264916 4.723788
356 1 -0.006939 33.008934 26.064390 4.204220
357 1 0.010483 31.303075 27.728400 1.436048
358 1 0.010729 27.462653 26.352565 0.413799
359 1 -0.005007 32.989938 27.754685 5.948205
360 1 -0.023726 28.549371 24.584858 6.044127
361 1 -0.008263 32.943620 22.632989 0.676171
362 1 -0.025245 28.793512 26.243712 4.113456
363 1 -0.002258 31.534783 27.729184 6.018184
364 1 -0.008577 30.942296 25.105395 3.425002
365 1 0.003795 31.052956 23.178427 6.281410
366 1 0.020537 32.400217 27.199174 0.734271
367 1 0.006784 33.684054 27.701012 1.010925
368 1 -0.009217 33.673449 23.507271 1.537481
369 1 0.001853 29.309558 21.317163 0.222023
370 1 -0.006696 31.542458 22.501099 0.753511
371 1 -0.007611 33.770509 25.230733 3.338731
372 2 0.053548 27.606856 22.048688 1.402692
373 1 -0.002114 31.594332 26.060981 4.197891
374 1 -0.002908 29.998662 22.781422 5.375463
375 2 0.019729 29.506556 25.082630 6.247816
376 1 -0.002474 28.660869 27.241181 6.415175
377 1 -0.007919 31.624102 24.329921 2.447586
378 1 0.000608 27.320814 26.639307 6.645702
379 1 -0.006895 30.903809 26.865429 5.131609
380 1 -0.016009 30.306566 22.043818 4.266441
381 1 0.006880 30.813219 21.428294 0.068065
382 2 0.112808 27.722476 26.319846 4.050826
383 1 -0.023570 28.756589 24.313756 2.448478
384 1 0.004983 33.327721 23.667112 6.630592
385 1 0.030595 31.627686 21.406373 4.163149
386 2 0.062706 29.599696 21.896165 3.456383
387 1 0.001334 25.028282 25.010332 6.835031
388 4 -0.488320 24.815662 22.178861 0.992877
389 1 -0.011136 21.143133 23.565049 4.446509
390 1 -0.053230 23.121013 24.604978 3.543239
391 1 -0.016167 23.431187 23.364224 2.879280
392 1 0.023751 21.923692 24.677928 4.322515
393 1 -0.001034 25.134836 22.260452 5.896578
394 4 -0.469862 25.409386 25.481401 2.918305
395 1 -0.050743 21.655890 25.865380 4.987689
396 1 0.271520 24.069207 25.670401 3.568933
397 1 0.230962 20.393011 26.054334 5.651754
398 1 0.182159 25.551361 24.277999 1.985615
399 2 0.017004 26.419939 24.200932 1.311067
400 1 -0.076782 23.858614 26.782450 4.326268
401 1 0.009342 26.227761 23.118771 5.713785
402 1 0.000085 20.541494 21.256526 3.843327
403 4 -0.494594 26.008459 27.734831 4.062720
404 1 0.031642 22.552843 22.267787 2.945111
405 1 0.174966 24.558005 23.327007 2.034140
406 1 -0.004129 22.506812 26.953629 4.916330
407 1 -0.000770 23.987192 22.753528 6.629247
408 1 0.409564 24.910676 27.793007 4.622892
409 1 -0.003907 22.957581 21.817786 6.921676
410 1 -0.006335 21.381648 22.407107 3.689501
411 1 0.006595 26.190932 24.411294 6.249535
412 1 -0.060953 25.308592 28.054915 0.799047
413 1 -0.061769 22.775345 21.149099 2.147807
414 3 -0.519155 20.036211 27.290026 6.151768
415 1 0.005181 19.960350 23.685588 5.192803
416 1 -0.055529 19.577298 24.889737 5.814034
417 1 -0.014876 17.998973 24.652591 0.704858
418 1 0.032983 18.371075 25.019772 6.513662
419 1 0.004754 13.429645 26.336542 4.965995
420 1 0.003862 13.429012 24.926008 5.140772
421 1 0.000658 17.606992 25.421085 1.830215
422 1 0.003285 17.961638 22.659862 6.176756
423 1 -0.009027 17.570843 23.871601 6.754928
424 1 0.011720 16.052573 22.605881 3.883833
425 1 0.004983 16.932531 27.662433 0.734534
426 1 0.003743 14.000141 22.284744 5.133413
427 1 0.003392 15.098626 23.127278 4.802739
428 1 0.009126 17.437798 22.554702 1.985173
429 1 -0.002073 19.170325 22.577619 5.433408
430 1 0.002353 14.751255 26.723876 4.579156
431 1 0.014429 16.535690 26.956896 3.137152
432 1 0.000264 17.161361 24.740932 3.007356
433 1 0.002887 16.883086 23.274963 3.023541
434 1 0.002361 17.028883 26.738170 1.809666
435 1 0.000642 14.746910 24.480337 4.918254
436 1 0.002489 15.584733 25.566068 4.716276
437 1 0.005608 16.636629 25.737593 3.802080
438 1 0.000108 17.910646 23.247612 0.873540
439 1 -0.003557 17.472367 21.213870 1.721670
440 1 -0.003265 15.262538 27.476655 3.446239
441 1 0.000151 17.204574 21.503614 6.446123
442 1 0.001621 19.438302 21.353512 4.720286
443 1 0.008818 16.088620 21.196157 3.636094
444 1 0.225448 18.802242 27.444255 6.801386
445 1 -0.002476 12.678183 22.684193 5.549957
446 1 0.024862 7.779167 27.608014 1.422201
447 1 0.005778 9.046175 27.423274 2.398316
448 1 -0.001980 12.315923 27.352736 4.990525
449 1 0.010535 12.320138 24.123337 5.628658
450 1 0.036849 6.379040 21.597374 6.666703
451 2 0.027478 10.454154 27.964366 6.000911
452 1 0.006104 11.170823 27.168703 5.802156
453 1 -0.016909 7.062463 27.060440 6.490119
454 2 0.029975 10.224683 23.763634 6.073846
455 1 -0.012918 10.967650 24.541954 5.895744
456 2 0.039682 9.513485 26.083738 6.386267
457 1 0.022255 10.576301 25.862046 6.033183
458 1 0.030880 7.371411 26.409524 1.181814
459 1 0.070278 7.348313 25.075788 1.317922
460 2 0.020176 10.359481 25.954531 3.265880
461 1 0.019476 8.626682 24.951074 2.483853
462 1 0.008564 11.982498 21.424278 5.318208
463 1 -0.021666 9.413323 26.110356 2.774909
464 1 0.010761 9.122387 23.767182 2.884648
465 2 0.037295 9.108621 22.641596 2.854571
466 2 0.023474 9.729026 21.283275 5.271076
467 1 0.002965 6.269507 21.810888 5.290852
468 1 -0.002637 6.305468 21.354599 3.060798
469 2 0.093138 6.813170 26.116833 6.058522
470 1 0.017601 5.115040 22.701186 5.194662
471 1 0.016640 5.651636 21.329410 0.723025
472 2 0.004983 5.756553 26.850143 4.329164
473 1 0.002085 5.390669 22.431388 2.839500
474 2 0.019520 1.804486 25.126559 6.365398
475 1 0.032050 4.468314 22.791185 6.406671
476 1 -0.015903 3.340962 24.067818 2.104091
477 1 0.255829 6.007986 27.923219 4.510701
478 1 -0.044176 3.157865 23.404534 6.641343
479 2 0.026664 2.536536 24.739334 1.750590
480 1 -0.014151 2.717454 24.612174 4.460441
481 1 -0.008934 3.969744 23.322083 1.080017
482 2 0.036124 3.677755 23.383044 0.049864
483 2 0.028103 2.173313 25.423466 3.946748
484 1 0.002302 4.923298 22.346052 1.455799
485 1 -0.006545 4.611046 22.951812 3.880996
486 1 -0.006119 2.510446 24.466172 5.831187
487 1 0.007081 3.585848 23.903945 3.499765
488 2 0.014997 43.196560 28.205960 3.670470
489 2 0.016766 43.213339 28.434215 1.488036
490 2 0.019743 43.262370 29.878024 5.590502
491 1 0.011919 41.408798 28.732363 4.834399
492 1 -0.014012 42.163780 29.688710 5.697074
493 1 -0.009289 41.812697 30.020519 1.153910
494 1 -0.017871 42.596593 28.948025 0.780613
495 1 -0.010437 41.487350 30.362068 6.656339
496 2 0.044978 41.754334 30.357946 2.203830
497 1 -0.015254 35.085904 28.588846 6.680150
498 1 -0.007717 35.091168 29.325744 2.145337
499 1 0.005559 35.703847 32.019278 5.291938
500 2 0.068351 40.546959 32.222697 1.520418
501 2 0.069514 35.833404 32.805393 6.115448
502 2 0.046002 39.701085 34.159208 0.783113
503 2 -0.056172 40.332221 33.038412 5.592534
504 1 -0.001062 40.526928 31.955429 0.431257
505 4 -0.547425 38.152129 33.359199 5.836030
506 1 0.013082 39.962051 28.514047 5.041060
507 1 0.004032 39.249923 29.250541 6.019231
508 1 0.586051 39.597803 33.551929 6.295765
509 1 0.019294 41.126216 30.734610 0.122485
510 1 0.036583 36.297295 28.688772 1.540833
511 1 0.022031 36.753703 31.667057 4.457100
512 1 0.001186 37.900216 29.092003 6.236149
513 1 0.174721 38.081586 32.317968 4.685720
514 2 -0.028573 35.822869 31.504277 0.132230
515 1 -0.053274 36.588202 30.808403 3.317905
516 1 0.166015 39.145318 32.058964 3.922277
517 2 0.020870 40.193916 32.469588 4.100532
518 4 -0.500397 39.122629 30.954182 2.874674
519 1 0.238381 37.701089 30.379573 2.592959
520 2 0.053119 38.521796 28.841552 1.392954
521 1 0.003763 40.024947 30.149490 6.849573
522 1 0.016462 34.340741 31.624158 5.029230
523 1 0.025450 35.260171 30.410494 2.984836
524 1 0.028873 34.154751 30.817391 3.812149
525 1 -0.004298 37.155585 28.087470 5.443960
526 1 -0.054695 37.558947 29.274086 1.777107
527 2 0.032121 34.059622 34.444259 6.517284
528 2 0.014936 32.951664 30.403455 0.376984
529 2 -0.058014 33.374445 34.182935 5.005617
530 1 0.008205 33.832570 28.776380 1.838449
531 2 0.027182 30.449240 34.775760 4.235033
532 4 -0.532210 33.859674 33.763688 3.093296
533 1 0.001291 33.686448 28.577761 6.817859
534 1 0.000166 32.839980 30.288499 3.584943
535 1 -0.002984 31.445237 32.773419 0.590976
536 1 0.031251 27.873243 29.722796 2.876912
537 1 0.002990 31.780614 30.894100 4.263387
538 1 0.002769 29.323170 31.162878 4.277853
539 1 0.003447 30.304378 29.393453 2.949470
540 1 0.007869 30.326083 33.372569 1.188532
541 1 0.033499 32.682186 33.318004 0.154214
542 1 0.014330 29.632094 31.439076 0.089539
543 1 -0.014276 31.017613 31.547233 0.055107
544 1 0.024592 33.087754 34.694270 0.174144
545 2 0.014320 28.448562 34.091082 6.048823
546 1 -0.005971 30.887079 33.810276 6.734402
547 1 -0.011039 28.310498 33.169287 5.457286
548 1 -0.009832 33.255383 32.105061 5.768756
549 1 -0.000490 31.467606 28.716692 2.444816
550 1 -0.003861 30.163390 34.645618 1.526203
551 1 0.002649 29.476317 32.311087 5.190406
552 1 -0.001784 27.880784 32.990309 0.979324
553 1 0.003578 29.011771 29.005776 2.511884
554 2 0.027647 33.533709 32.803051 6.654155
555 1 -0.003650 32.748524 29.302813 2.563931
556 1 -0.008605 29.249259 32.612732 0.792049
557 2 -0.010757 27.959156 29.322394 6.509280
558 1 -0.001405 30.750722 32.656188 5.809674
559 1 -0.006884 28.053064 30.772869 3.811452
560 1 -0.006657 30.478077 30.521374 3.812087
561 1 0.014481 31.939473 31.890431 5.340582
562 1 -0.006153 27.685650 34.316528 1.503879
563 1 0.595937 33.893408 34.534949 4.079943
564 1 -0.001760 25.110322 34.493728 1.177190
565 1 0.011088 24.795237 33.165107 0.934596
566 1 0.641249 22.313176 30.506974 4.401974
567 4 -0.528894 21.130878 30.599438 4.130377
568 1 0.098064 26.437447 28.311769 1.543101
569 1 -0.061844 21.404521 34.569080 6.375122
570 1 0.006348 25.661675 32.137654 0.591952
571 1 0.183429 20.896362 28.383790 6.039376
572 1 0.001537 20.486970 29.652749 6.657873
573 1 -0.013032 27.013101 32.042981 0.514688
574 1 0.259442 21.164263 34.386736 5.017539
575 2 -0.016152 22.951804 31.412174 4.222734
576 2 0.068993 24.689844 31.989799 3.800258
577 2 0.045128 20.889674 33.413135 4.609025
578 1 0.262465 24.211283 28.937922 0.957575
579 1 0.016526 26.899843 31.633499 4.125131
580 2 0.133592 22.248779 29.526184 0.377951
581 1 0.253194 22.063206 28.239039 5.277544
582 1 -0.057307 25.631297 31.331704 3.570778
583 2 0.050217 26.169140 33.483968 5.112139
584 1 -0.043039 23.105203 28.815340 0.202969
585 2 -0.043108 25.568087 31.026785 6.496060
586 1 -0.006149 26.415918 34.967331 1.445438
587 1 -0.039420 26.610042 29.510430 2.260317
588 4 -0.497984 24.199761 30.043043 1.961383
589 2 0.054118 21.117774 30.524977 6.691976
590 1 0.268783 25.523788 30.330858 2.656034
591 2 0.030397 24.854660 28.483574 5.525132
592 2 0.035669 21.211794 32.444185 6.863686
593 4 -0.603252 23.006482 29.347904 5.087323
594 1 -0.017959 27.098930 32.880610 4.858071
595 1 0.024484 23.647028 33.022107 0.097422
596 2 0.037776 16.475871 29.608081 0.046464
597 2 0.031521 13.102598 29.240053 6.405827
598 1 -0.012885 16.194555 28.909401 0.823731
599 1 0.000021 14.581975 28.558502 2.758154
600 1 -0.013969 15.160531 29.327731 1.673262
601 1 -0.018492 13.364059 29.174379 3.378100
602 2 0.025612 14.698959 30.297210 1.426065
603 1 -0.002414 6.613816 32.998405 4.691726
604 1 -0.068537 6.668135 30.535382 5.114442
605 1 0.011053 12.156959 35.008256 6.396357
606 1 0.041353 7.105820 29.502154 5.992373
607 2 0.016990 10.398569 30.941874 5.699005
608 1 0.005656 7.721840 34.651866 6.104072
609 1 -0.001509 8.158987 30.144787 1.549908
610 1 -0.008001 7.705610 32.142812 6.669350
611 1 0.008943 12.422222 33.535817 6.610494
612 2 0.013319 10.281611 28.573420 3.743129
613 1 0.022852 7.367804 29.012213 0.951403
614 1 0.002239 10.959355 32.241532 0.170799
615 4 -0.565902 13.009704 34.840764 2.676976
616 2 0.041216 6.629435 35.039935 4.164600
617 1 0.001691 6.731390 31.781792 0.409679
618 2 0.011529 11.690672 29.006673 1.443779
619 1 0.038558 7.007343 34.173340 0.445872
620 1 -0.027260 9.543574 28.563388 2.960743
621 1 -0.018466 11.487394 31.186349 1.047689
622 1 -0.019216 9.461458 32.358633 2.808926
623 1 -0.029755 6.995075 34.312721 4.901733
624 1 -0.023567 12.482137 28.661329 4.332395
625 2 0.029845 12.098841 31.465295 1.923190
626 1 -0.005671 11.509454 32.766796 5.805364
627 1 -0.023375 11.229854 29.833991 0.805155
628 2 0.018398 12.936727 30.164177 3.065950
629 2 0.115356 11.936645 33.837019 1.280841
630 2 0.014127 11.747671 29.407003 4.512513
631 1 -0.000981 11.259648 33.572747 0.457267
632 1 -0.022293 11.232742 31.427202 6.218968
633 1 -0.001223 7.889652 31.514031 1.181124
634 1 -0.010214 8.068457 33.538467 6.970075
635 1 0.002301 9.203781 29.879331 2.482963
636 1 -0.063616 7.913572 33.968103 1.546449
637 2 0.015936 10.718316 30.898627 3.776127
638 1 0.013202 8.472296 32.696316 1.783246
639 2 0.028089 9.952527 33.234143 3.349413
640 1 -0.018564 9.893183 31.087005 3.036396
641 1 0.006451 7.019550 31.881783 5.485160
642 1 -0.073817 6.725982 28.197971 5.623991
643 2 0.027816 10.916195 33.296051 5.045976
644 2 -0.002366 9.189652 34.945074 3.201400
645 1 -0.007992 5.757575 32.709377 3.591019
646 1 -0.053601 5.399638 31.427300 3.265163
647 2 0.026477 5.324291 33.544389 3.001754
648 2 0.059745 4.829327 31.255056 2.303268
649 4 -0.503967 5.546423 28.894008 3.521617
650 1 0.251735 5.899149 30.309133 3.963430
651 1 0.000481 42.253159 41.986105 3.143748
652 1 -0.057943 44.903364 42.094481 4.168408
653 1 0.039433 44.161537 40.878436 4.195265
654 4 -0.497033 46.862503 40.945837 5.295626
655 2 0.354851 41.793152 41.472999 0.621504
656 1 0.009485 42.843128 40.849410 3.742225
657 1 -0.057379 42.110838 39.657305 3.991331
658 1 -0.065898 43.979038 38.471032 4.838118
659 2 0.010287 46.582614 38.765654 5.700881
660 1 -0.048325 44.786622 39.713900 4.722101
661 4 -0.490918 41.875458 37.195515 4.649644
662 1 0.255345 46.060356 39.734186 5.316220
663 1 0.271379 42.680188 38.439780 4.525683
664 2 0.066345 44.428050 37.578562 5.212292
665 1 0.009935 36.748801 42.080961 2.000435
666 1 -0.005229 40.865333 42.054123 2.894119
667 1 0.000777 38.145852 42.097825 2.350287
668 2 0.017864 39.497068 38.262128 6.757584
669 2 -0.002997 40.872527 36.580381 1.845396
670 1 0.043151 40.719469 39.747959 3.710942
671 1 0.585066 40.562530 36.277907 0.795702
672 1 0.247589 40.379463 37.418956 4.553238
673 2 0.009598 40.926904 40.203323 6.512950
674 1 -0.008359 37.589412 37.790124 4.494639
675 2 0.017349 36.785906 39.804494 6.635356
676 1 -0.062049 39.859733 38.633548 4.021653