C700_000 slab +z

10582 atoms
4 atom types

0.000000 56.144225 xlo xhi
0.000000 56.144225 ylo yhi
0.000000 156.134288 zlo zhi

Masses

1 12.011
2 1.008
3 14.007
4 15.999

Atoms # charge

1 2 0.030456 19.330632 3.442144 5.749744
2 2 0.026767 17.214740 4.814909 5.740111
3 1 -0.016919 19.736987 4.214173 6.385078
4 1 0.000501 17.559174 5.468941 6.549873
5 1 0.025700 18.974306 5.312548 6.871923
6 2 0.029611 15.664320 6.275156 6.941856
7 2 0.027464 21.534908 2.417498 5.559916
8 2 0.035866 25.476666 5.370674 5.574931
9 1 -0.020128 25.570680 6.229899 6.277166
10 2 0.051632 23.102494 6.140971 5.136915
11 2 0.022602 23.576593 0.810925 6.247775
12 1 -0.021069 21.926692 3.080545 6.311465
13 2 0.020185 27.482454 4.489158 6.445617
14 1 -0.019012 23.913472 1.610845 6.828245
15 1 0.006176 21.078473 4.115353 6.787219
16 1 0.004341 23.149422 2.840276 6.986687
17 1 -0.010814 23.272539 6.985223 5.859574
18 2 0.011882 20.423442 9.774584 6.601184
19 2 0.027306 19.295256 13.742300 4.493198
20 1 -0.000641 26.123152 12.905541 6.738083
21 2 0.021093 21.127337 12.452598 3.541630
22 2 0.023747 21.312095 7.682099 5.511306
23 4 -0.439516 24.161235 7.170096 2.570423
24 2 0.059385 26.432901 7.199930 3.720272
25 1 0.008840 24.532529 7.173738 6.502363
26 1 0.002948 21.358944 13.778035 5.262891
27 1 0.006251 26.508986 13.554575 3.023452
28 1 -0.032337 21.764288 12.731981 4.370736
29 1 -0.011089 25.320943 13.496247 2.196781
30 1 0.314643 24.073372 8.342569 2.958431
31 1 0.005009 22.462010 9.136898 6.759208
32 1 0.010049 26.302229 8.247800 4.130580
33 1 0.014360 27.533996 12.566758 2.958978
34 1 0.004542 24.760449 10.293621 4.302860
35 1 -0.004653 23.526110 13.879501 6.443891
36 2 0.022624 25.147529 12.728503 1.423550
37 2 0.017166 22.944644 10.505474 3.119202
38 2 0.001208 23.154476 8.926138 2.540418
39 1 -0.031891 23.487752 10.930409 3.942572
40 1 0.003607 23.046507 12.101707 4.603489
41 1 -0.018713 22.222079 7.876170 6.013908
42 1 -0.007397 23.888708 12.698640 5.733460
43 1 -0.004395 25.211559 12.163824 5.828692
44 1 -0.048137 25.153259 8.984477 3.856100
45 1 0.000616 25.659339 10.944736 5.227947
46 1 0.002041 26.847815 10.179081 5.672331
47 2 0.023649 26.376868 11.371906 1.356204
48 1 -0.000288 27.246635 8.788840 5.045849
49 1 -0.007955 27.293805 11.415040 2.080603
50 1 -0.000104 27.796845 10.468285 6.580223
51 2 0.029775 28.048826 9.504226 1.507322
52 4 -0.519958 34.656505 12.385804 3.939516
53 2 0.020137 28.833740 7.118765 4.866251
54 1 0.005178 28.844762 13.538778 4.792692
55 1 -0.013267 28.133974 10.346124 2.157178
56 1 -0.014764 31.358370 9.201782 3.799207
57 1 0.003060 31.576535 10.349014 4.639168
58 2 0.030041 32.066046 8.353876 3.832658
59 1 0.014990 32.734691 10.407847 5.467402
60 2 0.008903 33.679896 13.150631 2.249920
61 1 0.002420 29.500616 11.382477 3.872582
62 1 0.004100 30.012557 13.589332 5.578099
63 1 -0.044831 34.702751 9.337262 6.485480
64 1 -0.024477 30.561139 8.145986 6.827156
65 1 0.001909 30.915983 12.520899 5.544458
66 2 0.022095 30.903309 7.266601 6.217379
67 1 0.016934 28.662045 12.532726 3.877901
68 1 0.005412 29.302741 10.208268 3.015176
69 2 0.021390 30.090587 8.222919 2.361686
70 1 0.001853 29.376429 8.653679 6.385141
71 1 -0.024562 28.502174 8.108469 5.331021
72 2 0.067676 33.565787 8.361398 4.973172
73 1 0.026163 32.995233 11.506424 6.295429
74 1 0.007938 32.066554 12.590309 6.280687
75 1 0.612894 33.982842 13.236749 3.361542
76 1 0.020853 33.683380 9.333457 5.566384
77 1 -0.019304 30.261859 9.152306 2.995163
78 1 0.003104 30.667544 11.452214 4.626295
79 4 -0.506627 35.336634 7.061530 5.817971
80 4 -0.519744 41.713097 13.490710 4.293952
81 4 -0.434705 38.713043 12.732145 6.819277
82 1 0.628289 35.421355 7.965380 6.675592
83 2 0.089122 38.149486 13.593891 3.350005
84 1 0.290858 37.791232 13.516631 6.437262
85 1 0.611077 37.181782 12.054678 1.768478
86 4 -0.466552 37.847170 11.115085 2.145349
87 4 -0.504145 36.322108 13.255931 1.248656
88 2 0.027711 37.114141 13.169790 5.586041
89 4 -0.497057 48.709566 12.338565 3.022971
90 1 0.572293 49.020829 12.489227 1.536010
91 1 -0.054145 48.443323 13.893258 5.027400
92 1 0.608362 42.879420 13.292103 3.995079
93 2 -0.004702 43.460693 12.516837 4.593120
94 1 0.256655 48.427902 13.647533 3.665559
95 2 0.079491 46.127269 13.126494 1.717164
96 2 0.038672 44.498258 13.796590 0.013164
97 4 -0.443580 49.067914 11.517229 0.790400
98 2 0.065716 48.780191 13.184196 5.794206
99 1 -0.003566 46.462225 13.896601 1.016069
100 2 -0.052478 49.382330 13.467885 1.199094
101 1 0.031207 12.730196 21.049951 2.883732
102 2 -0.012470 7.981862 20.986635 3.175479
103 2 0.021510 12.280011 20.951237 6.564161
104 2 0.031390 10.180709 17.497696 6.568210
105 2 0.083618 9.594062 19.829989 6.489256
106 1 -0.063929 12.179577 20.135870 1.873239
107 1 0.007311 13.207348 19.018014 1.515525
108 1 0.243863 10.833104 20.312613 1.490987
109 1 0.002325 16.010648 20.648394 7.009651
110 1 -0.005484 14.598862 19.146805 1.689914
111 1 0.000790 17.045477 18.613841 1.062142
112 2 0.096051 18.582696 15.918988 5.745729
113 2 0.028392 15.908535 20.534452 5.957008
114 1 0.017393 19.307789 20.930676 3.160126
115 1 0.012328 15.731214 18.193420 1.004729
116 1 0.021493 20.559747 16.241829 6.642874
117 1 -0.016119 19.998481 14.414906 5.108807
118 1 0.027487 18.861475 20.078753 2.156929
119 4 -0.547943 20.076927 18.231214 4.276481
120 1 -0.033394 19.816369 19.234703 1.511250
121 1 -0.000631 15.053863 20.279530 2.529292
122 1 0.033535 20.720069 21.036474 3.482021
123 1 0.005532 19.576472 15.526459 5.759455
124 1 -0.008085 18.179418 17.817335 0.189029
125 1 0.065395 19.323671 18.328853 0.745352
126 1 0.006873 17.477832 19.740562 1.953672
127 1 0.002889 16.482675 20.439075 2.715870
128 2 0.074568 16.809195 18.267518 6.292182
129 1 -0.006680 25.785186 15.545835 4.124564
130 1 0.010835 25.902869 16.626068 5.069114
131 1 -0.039674 24.867658 17.607565 5.243670
132 1 0.041121 25.007859 18.666275 6.159939
133 1 -0.015160 23.119162 20.449605 3.244483
134 1 0.030126 24.589936 15.458131 3.374721
135 2 0.060578 23.974034 18.378673 2.442298
136 2 0.069195 22.675244 16.205312 2.998974
137 2 0.077437 26.690430 20.808411 4.354837
138 1 -0.091947 23.543468 16.383090 3.640349
139 1 0.008320 26.819648 14.582118 3.993233
140 1 0.274588 23.646482 17.342323 4.537848
141 1 0.007012 27.987802 14.643219 4.771716
142 1 0.010317 21.835760 15.593696 6.983085
143 1 -0.020605 23.974227 19.581918 6.540666
144 4 -0.486271 22.198658 18.496999 1.332600
145 1 -0.001419 22.260867 14.504756 6.166359
146 1 0.337894 21.394551 19.320567 1.813694
147 1 -0.007454 26.323660 18.878935 6.736462
148 1 0.002063 27.376887 17.914736 6.611415
149 1 -0.021009 21.783369 20.281487 2.915697
150 2 0.112306 22.963846 19.503425 6.167426
151 2 0.039792 23.481387 14.408525 1.718527
152 1 -0.014230 24.340674 14.447277 2.361613
153 4 -0.528186 25.388469 19.728457 2.880305
154 2 -0.055076 21.278692 16.705760 3.681439
155 1 0.613145 21.160356 17.676511 4.156434
156 2 0.059137 28.048009 18.778229 3.507957
157 4 -0.597877 22.460667 18.177238 4.827096
158 1 -0.000464 27.179722 16.753951 5.722482
159 1 0.367359 24.184086 19.472333 2.754287
160 1 -0.002152 28.161089 15.763262 5.587961
161 1 0.003415 33.233275 19.632411 6.623175
162 1 0.046060 34.021341 16.673766 0.555774
163 1 -0.003160 29.991556 20.996832 5.395171
164 1 0.000771 31.214988 18.803832 4.927692
165 1 0.256799 31.390379 21.053742 1.196659
166 2 0.066053 29.218392 16.859090 2.916470
167 1 0.002368 30.082227 18.490056 4.119710
168 4 -0.620850 33.600933 14.604403 3.910178
169 4 -0.461563 30.191247 14.936233 1.973369
170 1 -0.052482 34.424688 16.165975 5.625298
171 1 -0.000363 29.349625 15.839285 6.385155
172 1 0.003374 30.198530 14.688230 6.399382
173 1 -0.001607 31.093539 20.070796 5.584999
174 1 0.021577 28.840572 20.467005 4.685520
175 1 -0.017733 28.904251 19.233167 4.020895
176 1 0.329407 31.103800 15.111238 2.813039
177 1 -0.022901 31.184887 16.418463 3.608701
178 1 -0.007018 33.224371 18.855385 1.445354
179 1 -0.004392 34.163807 17.770062 1.481146
180 1 0.006658 32.223687 17.927975 5.200387
181 1 -0.054620 32.336081 16.716135 4.410342
182 1 0.293422 33.423974 15.844126 4.691423
183 1 0.006597 34.321857 17.431009 6.273101
184 1 -0.007533 33.290562 18.359690 6.016919
185 1 0.008914 33.349746 20.053183 2.216424
186 1 -0.001959 32.232375 20.566354 6.272277
187 1 -0.003655 30.096589 17.206556 3.501137
188 1 -0.002730 34.468353 20.103105 3.082643
189 1 -0.064606 31.210787 19.904438 0.502157
190 1 0.020432 32.093283 18.811105 0.546170
191 2 0.037362 31.663877 14.194372 3.160311
192 1 0.020274 40.645070 18.112111 6.862045
193 1 0.035389 37.116236 20.891751 0.473954
194 1 -0.003837 36.503596 15.731155 6.717766
195 1 0.016968 41.167871 20.960651 4.758878
196 1 -0.071644 35.126935 15.800001 0.488147
197 1 -0.000907 35.245283 17.875932 2.360949
198 1 -0.007038 35.365786 18.973518 3.213711
199 1 -0.003751 35.997041 15.666372 1.613284
200 1 0.002789 38.332131 20.422234 2.636450
201 1 -0.000386 36.066270 16.788190 2.506825
202 1 -0.092820 37.664995 14.496854 2.962801
203 1 -0.019109 38.412639 17.869525 0.367519
204 1 -0.001130 35.493948 15.309213 5.860552
205 1 0.012788 40.137538 20.339607 4.063994
206 2 0.023379 40.177747 15.711555 0.621715
207 1 0.019867 37.882324 15.712488 3.683534
208 2 0.082537 41.065907 16.091322 6.317493
209 1 -0.001645 40.478424 17.437545 1.917196
210 1 -0.036755 38.930275 15.796380 4.586979
211 1 -0.008903 38.343761 18.005579 5.284021
212 1 0.274876 36.696504 14.493510 1.965364
213 1 -0.008367 39.721183 19.227472 6.873565
214 2 0.087524 39.569207 15.010086 4.808438
215 1 0.001780 36.561028 20.271061 4.919843
216 1 0.004347 39.262998 18.223702 1.460498
217 1 -0.001738 37.671510 20.277526 5.858457
218 1 0.004323 39.099988 19.272106 2.404675
219 1 -0.005470 36.399947 19.089515 4.118866
220 1 0.017684 40.254615 19.137448 3.293631
221 1 -0.016652 37.038479 16.833855 3.510039
222 1 -0.000114 38.584950 19.134546 6.034347
223 1 -0.017588 40.351913 16.916252 6.247477
224 1 0.007732 39.221708 16.923367 5.363406
225 1 -0.011585 40.752301 16.169212 1.382639
226 1 -0.003033 37.206717 17.980159 4.389103
227 1 0.032352 41.204361 18.178952 2.969706
228 2 0.099241 41.029259 14.248656 2.207473
229 2 0.075969 35.560952 14.336338 5.304957
230 1 -0.080724 41.603011 15.178551 2.063020
231 1 0.592828 44.340459 16.016355 5.812316
232 4 -0.580327 43.506342 16.920120 5.741915
233 4 -0.558235 42.843940 20.487223 1.779558
234 1 -0.005158 47.402467 17.426048 5.330308
235 1 -0.016732 47.387592 16.313850 0.936224
236 1 0.017718 47.353426 14.914850 1.501391
237 1 0.585952 43.951991 20.202014 2.202739
238 1 0.023358 47.181458 17.510289 1.651701
239 1 -0.011314 47.708996 19.665583 4.409808
240 2 0.064063 45.548004 17.876136 6.891505
241 4 -0.580376 43.645647 14.093910 2.951581
242 1 0.010263 47.394811 19.155597 3.142998
243 1 -0.000469 47.478884 18.656498 0.868327
244 1 0.010921 47.936723 16.393405 6.133964
245 2 0.075764 44.511254 16.399129 1.332344
246 1 -0.012233 48.638069 20.774459 1.755834
247 1 -0.008668 48.371970 20.945397 4.314455
248 1 -0.142741 43.590665 16.526365 2.006310
249 2 -0.051435 44.675147 20.869953 2.692129
250 1 -0.001338 42.560096 18.208393 3.393241
251 2 0.003216 44.517242 15.449539 4.864807
252 1 0.306752 43.583396 17.754688 2.444365
253 4 -0.589237 44.598167 18.794581 2.038263
254 1 0.025953 47.064604 17.789241 3.011649
255 1 -0.008189 47.610952 18.847600 5.540594
256 1 -0.002824 44.339720 19.560054 4.629058
257 1 -0.005897 47.202921 16.938468 4.038413
258 1 -0.025330 44.479522 20.855556 5.194005
259 1 0.314123 42.908441 15.274198 2.374046
260 1 0.005173 42.395378 20.397200 4.876583
261 1 0.071334 43.023209 19.263139 4.270437
262 1 0.008165 47.612799 15.642948 3.910409
263 1 -0.059257 47.952479 14.772676 2.847610
264 2 0.060841 45.203482 18.989328 4.357294
265 1 0.001646 47.785106 19.646424 1.833853
266 1 -0.006262 48.195126 19.172106 6.797579
267 1 0.013160 48.017299 15.274124 5.213058
268 4 -0.432641 6.159682 21.865682 3.116756
269 1 -0.026004 13.030644 28.037041 3.781655
270 4 -0.451870 8.482259 21.695683 6.372227
271 1 0.006681 13.774645 25.072868 1.564545
272 1 0.010917 13.791990 26.964167 3.139803
273 2 0.021399 12.055948 26.184932 2.004572
274 1 -0.035082 11.773695 21.996380 3.429532
275 1 -0.002559 13.278457 25.168717 5.869425
276 2 0.186931 9.021130 21.111952 1.444497
277 3 -0.533117 10.028654 21.177122 1.903660
278 2 0.047058 8.924586 26.964505 5.747214
279 2 0.023876 12.080310 24.117461 0.514235
280 1 0.001033 11.488937 24.063403 4.629529
281 1 -0.014395 13.795375 22.985167 0.120935
282 1 0.014157 11.012582 26.097842 6.045890
283 1 0.229929 9.532021 23.111329 3.428529
284 1 -0.024003 13.072237 26.091625 2.251835
285 1 0.594406 7.388700 21.953378 3.106554
286 4 -0.505647 8.151844 23.254896 2.927993
287 1 -0.030046 10.097826 24.074694 4.237614
288 1 -0.003184 12.341407 23.016268 4.225023
289 1 -0.005274 11.914094 25.056513 5.530788
290 1 -0.027085 11.439156 27.095935 6.925375
291 1 -0.003282 13.742672 26.176543 6.806269
292 1 -0.020923 9.629121 26.164981 5.442894
293 2 0.093955 8.176175 25.188875 4.274737
294 1 -0.007374 13.717307 23.123196 4.526554
295 1 0.167076 10.426227 22.087881 2.952378
296 1 0.026226 9.225397 25.157566 4.634535
297 1 -0.016152 13.170379 24.008214 0.740836
298 1 0.008032 17.308334 25.306494 6.992319
299 1 -0.003411 14.184551 24.279470 5.237071
300 1 -0.002069 14.633759 22.173512 3.969550
301 1 0.018553 18.374574 21.557433 4.005181
302 1 0.024478 19.571398 24.479906 6.869520
303 1 -0.007243 19.398278 24.500777 2.155127
304 1 0.008799 20.479059 23.625011 6.259551
305 1 0.020968 20.321019 27.106895 0.405274
306 1 -0.001649 17.314733 27.465655 4.439968
307 2 0.019143 15.217025 22.603602 6.917560
308 1 -0.007914 20.138175 23.537961 1.429393
309 1 -0.002527 17.968903 26.496054 3.633804
310 1 -0.001170 15.209352 24.961247 1.693143
311 1 0.001920 15.949732 25.197876 6.644937
312 1 -0.002636 19.384058 27.849638 5.680796
313 1 0.011673 15.908137 27.650526 4.175055
314 1 -0.004916 18.016055 24.649239 1.990305
315 1 -0.008452 19.442914 22.722376 0.568998
316 1 -0.008400 18.020090 22.794631 0.432352
317 1 0.010129 20.128127 22.719016 5.233324
318 1 -0.004608 16.040873 22.298309 4.179234
319 1 0.020941 17.818312 23.392776 5.535328
320 1 0.022985 18.214523 24.401809 6.407115
321 1 -0.002909 16.497768 23.333512 5.058449
322 1 -0.000789 15.579007 24.258947 5.648916
323 1 0.009722 18.807067 22.571918 4.906337
324 1 -0.002927 17.322227 23.752661 1.142023
325 1 -0.007058 20.079964 27.032745 4.811683
326 1 -0.002821 15.893343 23.885533 1.097797
327 1 -0.005945 20.023847 25.283014 3.146518
328 1 -0.001471 17.345232 25.710161 2.659490
329 1 -0.007247 19.371072 26.277946 3.859005
330 1 0.000861 15.225372 26.769617 3.312140
331 1 0.000955 15.952800 25.836416 2.508407
332 1 0.008718 18.996727 27.635301 0.664979
333 2 0.028732 18.122958 27.264635 0.124722
334 1 0.003909 16.964846 21.353458 3.718300
335 1 0.007136 15.269487 22.864096 0.250780
336 1 -0.009881 14.137319 21.200708 3.043103
337 1 0.007664 27.695622 22.519570 5.301512
338 2 0.047888 27.501975 24.376100 2.417899
339 1 -0.000858 25.747121 23.275828 1.748577
340 1 -0.001315 22.773095 22.897557 5.931296
341 1 -0.005918 26.514475 22.134384 1.113190
342 1 -0.005635 24.302088 23.379211 1.679884
343 1 0.032998 25.310686 26.125363 0.243503
344 1 0.010601 25.750599 26.870345 5.173506
345 1 0.010841 27.607069 27.435833 1.310143
346 1 0.008532 27.807275 25.267496 6.259653
347 1 -0.002070 22.451842 22.027150 4.906650
348 1 0.012992 25.695279 25.217959 3.309618
349 1 0.003792 26.550339 23.297154 5.489478
350 1 -0.010277 22.124146 24.405128 2.439134
351 1 0.000565 25.134873 27.166285 1.178222
352 1 -0.010392 21.485026 26.957335 4.964678
353 1 0.006334 26.290726 27.838703 1.688540
354 1 0.020016 21.101205 21.876542 4.608873
355 1 -0.021937 27.630802 21.264916 4.719506
356 1 -0.006939 22.163529 26.064390 4.199937
357 1 0.010483 23.869389 27.728400 1.431766
358 1 0.010729 27.709810 26.352565 0.409517
359 1 -0.005007 22.182525 27.754685 5.943922
360 1 -0.023726 26.623092 24.584858 6.039844
361 1 -0.008263 22.228843 22.632989 0.671889
362 1 -0.025245 26.378951 26.243712 4.109173
363 1 -0.002258 23.637680 27.729184 6.013902
364 1 -0.008577 24.230167 25.105395 3.420720
365 1 0.003795 24.119508 23.178427 6.277127
366 1 0.020537 22.772246 27.199174 0.729988
367 1 0.006784 21.488410 27.701012 1.006643
368 1 -0.009217 21.499014 23.507271 1.533199
369 1 0.001853 25.862905 21.317163 0.217741
370 1 -0.006696 23.630006 22.501099 0.749228
371 1 -0.007611 21.401954 25.230733 3.334448
372 2 0.053548 27.565607 22.048688 1.398410
373 1 -0.002114 23.578131 26.060981 4.193609
374 1 -0.002908 25.173801 22.781422 5.371181
375 2 0.019729 25.665908 25.082630 6.243533
376 1 -0.002474 26.511594 27.241181 6.410892
377 1 -0.007919 23.548361 24.329921 2.443304
378 1 0.000608 27.851649 26.639307 6.641419
379 1 -0.006895 24.268654 26.865429 5.127327
380 1 -0.016009 24.865897 22.043818 4.262158
381 1 0.006880 24.359244 21.428294 0.063782
382 2 0.112808 27.449987 26.319846 4.046544
383 1 -0.023570 26.415874 24.313756 2.444195
384 1 0.004983 21.844742 23.667112 6.626310
385 1 0.030595 23.544777 21.406373 4.158867
386 2 0.062706 25.572767 21.896165 3.452101
387 1 0.001334 30.144181 25.010332 6.830749
388 4 -0.488320 30.356802 22.178861 0.988595
389 1 -0.011136 34.029330 23.565049 4.442227
390 1 -0.053230 32.051450 24.604978 3.538956
391 1 -0.016167 31.741276 23.364224 2.874997
392 1 0.023751 33.248771 24.677928 4.318232
393 1 -0.001034 30.037627 22.260452 5.892296
394 4 -0.469862 29.763077 25.481401 2.914023
395 1 -0.050743 33.516573 25.865380 4.983406
396 1 0.271520 31.103256 25.670401 3.564651
397 1 0.230962 34.779452 26.054334 5.647472
398 1 0.182159 29.621102 24.277999 1.981333
399 2 0.017004 28.752524 24.200932 1.306785
400 1 -0.076782 31.313849 26.782450 4.321986
401 1 0.009342 28.944702 23.118771 5.709503
402 1 0.000085 34.630970 21.256526 3.839045
403 4 -0.494594 29.164004 27.734831 4.058438
404 1 0.031642 32.619620 22.267787 2.940829
405 1 0.174966 30.614458 23.327007 2.029857
406 1 -0.004129 32.665651 26.953629 4.912048
407 1 -0.000770 31.185271 22.753528 6.624964
408 1 0.409564 30.261787 27.793007 4.618609
409 1 -0.003907 32.214882 21.817786 6.917394
410 1 -0.006335 33.790815 22.407107 3.685219
411 1 0.006595 28.981531 24.411294 6.245253
412 1 -0.060953 29.863871 28.054915 0.794764
413 1 -0.061769 32.397118 21.149099 2.143525
414 3 -0.519155 35.136253 27.290026 6.147486
415 1 0.005181 35.212113 23.685588 5.188521
416 1 -0.055529 35.595165 24.889737 5.809752
417 1 -0.014876 37.173490 24.652591 0.700576
418 1 0.032983 36.801388 25.019772 6.509380
419 1 0.004754 41.742819 26.336542 4.961713
420 1 0.003862 41.743451 24.926008 5.136490
421 1 0.000658 37.565471 25.421085 1.825932
422 1 0.003285 37.210825 22.659862 6.172473
423 1 -0.009027 37.601620 23.871601 6.750646
424 1 0.011720 39.119890 22.605881 3.879551
425 1 0.004983 38.239932 27.662433 0.730252
426 1 0.003743 41.172322 22.284744 5.129130
427 1 0.003392 40.073837 23.127278 4.798456
428 1 0.009126 37.734665 22.554702 1.980890
429 1 -0.002073 36.002138 22.577619 5.429125
430 1 0.002353 40.421209 26.723876 4.574874
431 1 0.014429 38.636773 26.956896 3.132869
432 1 0.000264 38.011102 24.740932 3.003074
433 1 0.002887 38.289377 23.274963 3.019259
434 1 0.002361 38.143580 26.738170 1.805383
435 1 0.000642 40.425554 24.480337 4.913972
436 1 0.002489 39.587730 25.566068 4.711993
437 1 0.005608 38.535834 25.737593 3.797798
438 1 0.000108 37.261817 23.247612 0.869258
439 1 -0.003557 37.700096 21.213870 1.717387
440 1 -0.003265 39.909925 27.476655 3.441956
441 1 0.000151 37.967889 21.503614 6.441840
442 1 0.001621 35.734162 21.353512 4.716004
443 1 0.008818 39.083843 21.196157 3.631812
444 1 0.225448 36.370221 27.444255 6.797103
445 1 -0.002476 42.494280 22.684193 5.545675
446 1 0.024862 47.393297 27.608014 1.417919
447 1 0.005778 46.126288 27.423274 2.394034
448 1 -0.001980 42.856540 27.352736 4.986243
449 1 0.010535 42.852325 24.123337 5.624376
450 1 0.036849 48.793423 21.597374 6.662421
451 2 0.027478 44.718309 27.964366 5.996628
452 1 0.006104 44.001640 27.168703 5.797874
453 1 -0.016909 48.110001 27.060440 6.485837
454 2 0.029975 44.947780 23.763634 6.069564
455 1 -0.012918 44.204813 24.541954 5.891462
456 2 0.039682 45.658979 26.083738 6.381985
457 1 0.022255 44.596162 25.862046 6.028900
458 1 0.030880 47.801053 26.409524 1.177531
459 1 0.070278 47.824150 25.075788 1.313640
460 2 0.020176 44.812982 25.954531 3.261598
461 1 0.019476 46.545781 24.951074 2.479571
462 1 0.008564 43.189965 21.424278 5.313926
463 1 -0.021666 45.759140 26.110356 2.770626
464 1 0.010761 46.050076 23.767182 2.880365
465 2 0.037295 46.063842 22.641596 2.850288
466 2 0.023474 45.443437 21.283275 5.266794
467 1 0.002965 48.902956 21.810888 5.286570
468 1 -0.002637 48.866995 21.354599 3.056516
469 2 0.093138 48.359293 26.116833 6.054240
470 1 0.017601 50.057423 22.701186 5.190380
471 1 0.016640 49.520827 21.329410 0.718743
472 2 0.004983 49.415910 26.850143 4.324882
473 1 0.002085 49.781794 22.431388 2.835218
474 2 0.019520 53.367977 25.126559 6.361115
475 1 0.032050 50.704149 22.791185 6.402389
476 1 -0.015903 51.831501 24.067818 2.099809
477 1 0.255829 49.164477 27.923219 4.506419
478 1 -0.044176 52.014598 23.404534 6.637060
479 2 0.026664 52.635927 24.739334 1.746307
480 1 -0.014151 52.455009 24.612174 4.456159
481 1 -0.008934 51.202719 23.322083 1.075735
482 2 0.036124 51.494708 23.383044 0.045581
483 2 0.028103 52.999150 25.423466 3.942466
484 1 0.002302 50.249165 22.346052 1.451517
485 1 -0.006545 50.561417 22.951812 3.876713
486 1 -0.006119 52.662017 24.466172 5.826905
487 1 0.007081 51.586615 23.903945 3.495482
488 2 0.014997 11.975903 28.205960 3.666187
489 2 0.016766 11.959124 28.434215 1.483754
490 2 0.019743 11.910094 29.878024 5.586220
491 1 0.011919 13.763665 28.732363 4.830117
492 1 -0.014012 13.008683 29.688710 5.692791
493 1 -0.009289 13.359767 30.020519 1.149627
494 1 -0.017871 12.575870 28.948025 0.776330
495 1 -0.010437 13.685113 30.362068 6.652057
496 2 0.044978 13.418130 30.357946 2.199548
497 1 -0.015254 20.086559 28.588846 6.675868
498 1 -0.007717 20.081296 29.325744 2.141055
499 1 0.005559 19.468616 32.019278 5.287656
500 2 0.068351 14.625504 32.222697 1.516136
501 2 0.069514 19.339059 32.805393 6.111166
502 2 0.046002 15.471378 34.159208 0.778831
503 2 -0.056172 14.840242 33.038412 5.588252
504 1 -0.001062 14.645535 31.955429 0.426974
505 4 -0.547425 17.020334 33.359199 5.831748
506 1 0.013082 15.210412 28.514047 5.036777
507 1 0.004032 15.922540 29.250541 6.014949
508 1 0.586051 15.574660 33.551929 6.291483
509 1 0.019294 14.046247 30.734610 0.118202
510 1 0.036583 18.875168 28.688772 1.536550
511 1 0.022031 18.418760 31.667057 4.452818
512 1 0.001186 17.272247 29.092003 6.231867
513 1 0.174721 17.090877 32.317968 4.681438
514 2 -0.028573 19.349594 31.504277 0.127948
515 1 -0.053274 18.584261 30.808403 3.313622
516 1 0.166015 16.027146 32.058964 3.917995
517 2 0.020870 14.978547 32.469588 4.096250
518 4 -0.500397 16.049834 30.954182 2.870392
519 1 0.238381 17.471374 30.379573 2.588676
520 2 0.053119 16.650667 28.841552 1.388672
521 1 0.003763 15.147516 30.149490 6.845291
522 1 0.016462 20.831722 31.624158 5.024947
523 1 0.025450 19.912293 30.410494 2.980554
524 1 0.028873 21.017712 30.817391 3.807866
525 1 -0.004298 18.016878 28.087470 5.439678
526 1 -0.054695 17.613516 29.274086 1.772825
527 2 0.032121 21.112841 34.444259 6.513001
528 2 0.014936 22.220799 30.403455 0.372702
529 2 -0.058014 21.798018 34.182935 5.001334
530 1 0.008205 21.339893 28.776380 1.834166
531 2 0.027182 24.723223 34.775760 4.230751
532 4 -0.532210 21.312789 33.763688 3.089014
533 1 0.001291 21.486015 28.577761 6.813577
534 1 0.000166 22.332483 30.288499 3.580660
535 1 -0.002984 23.727227 32.773419 0.586694
536 1 0.031251 27.299220 29.722796 2.872630
537 1 0.002990 23.391849 30.894100 4.259105
538 1 0.002769 25.849293 31.162878 4.273570
539 1 0.003447 24.868085 29.393453 2.945187
540 1 0.007869 24.846380 33.372569 1.184250
541 1 0.033499 22.490277 33.318004 0.149931
542 1 0.014330 25.540370 31.439076 0.085256
543 1 -0.014276 24.154850 31.547233 0.050824
544 1 0.024592 22.084709 34.694270 0.169861
545 2 0.014320 26.723901 34.091082 6.044540
546 1 -0.005971 24.285385 33.810276 6.730119
547 1 -0.011039 26.861965 33.169287 5.453003
548 1 -0.009832 21.917080 32.105061 5.764474
549 1 -0.000490 23.704857 28.716692 2.440534
550 1 -0.003861 25.009073 34.645618 1.521921
551 1 0.002649 25.696146 32.311087 5.186124
552 1 -0.001784 27.291679 32.990309 0.975042
553 1 0.003578 26.160692 29.005776 2.507601
554 2 0.027647 21.638754 32.803051 6.649873
555 1 -0.003650 22.423939 29.302813 2.559649
556 1 -0.008605 25.923204 32.612732 0.787766
557 2 -0.010757 27.213307 29.322394 6.504998
558 1 -0.001405 24.421741 32.656188 5.805392
559 1 -0.006884 27.119399 30.772869 3.807169
560 1 -0.006657 24.694387 30.521374 3.807805
561 1 0.014481 23.232990 31.890431 5.336300
562 1 -0.006153 27.486813 34.316528 1.499596
563 1 0.595937 21.279055 34.534949 4.075660
564 1 -0.001760 30.062142 34.493728 1.172908
565 1 0.011088 30.377226 33.165107 0.930313
566 1 0.641249 32.859287 30.506974 4.397692
567 4 -0.528894 34.041585 30.599438 4.126095
568 1 0.098064 28.735016 28.311769 1.538818
569 1 -0.061844 33.767942 34.569080 6.370840
570 1 0.006348 29.510788 32.137654 0.587670
571 1 0.183429 34.276101 28.383790 6.035093
572 1 0.001537 34.685493 29.652749 6.653591
573 1 -0.013032 28.159362 32.042981 0.510406
574 1 0.259442 34.008200 34.386736 5.013257
575 2 -0.016152 32.220659 31.412174 4.218451
576 2 0.068993 30.482619 31.989799 3.795976
577 2 0.045128 34.282789 33.413135 4.604742
578 1 0.262465 30.961180 28.937922 0.953293
579 1 0.016526 28.272621 31.633499 4.120849
580 2 0.133592 32.923684 29.526184 0.373668
581 1 0.253194 33.109257 28.239039 5.273262
582 1 -0.057307 29.541166 31.331704 3.566495
583 2 0.050217 29.003324 33.483968 5.107857
584 1 -0.043039 32.067260 28.815340 0.198686
585 2 -0.043108 29.604376 31.026785 6.491777
586 1 -0.006149 28.756545 34.967331 1.441155
587 1 -0.039420 28.562421 29.510430 2.256035
588 4 -0.497984 30.972702 30.043043 1.957100
589 2 0.054118 34.054689 30.524977 6.687694
590 1 0.268783 29.648675 30.330858 2.651752
591 2 0.030397 30.317803 28.483574 5.520850
592 2 0.035669 33.960669 32.444185 6.859403
593 4 -0.603252 32.165981 29.347904 5.083041
594 1 -0.017959 28.073533 32.880610 4.853788
595 1 0.024484 31.525435 33.022107 0.093140
596 2 0.037776 38.696592 29.608081 0.042181
597 2 0.031521 42.069865 29.240053 6.401544
598 1 -0.012885 38.977908 28.909401 0.819448
599 1 0.000021 40.590488 28.558502 2.753872
600 1 -0.013969 40.011932 29.327731 1.668980
601 1 -0.018492 41.808404 29.174379 3.373818
602 2 0.025612 40.473504 30.297210 1.421782
603 1 -0.002414 48.558647 32.998405 4.687444
604 1 -0.068537 48.504328 30.535382 5.110159
605 1 0.011053 43.015505 35.008256 6.392075
606 1 0.041353 48.066643 29.502154 5.988090
607 2 0.016990 44.773894 30.941874 5.694722
608 1 0.005656 47.450623 34.651866 6.099790
609 1 -0.001509 47.013476 30.144787 1.545626
610 1 -0.008001 47.466853 32.142812 6.665068
611 1 0.008943 42.750241 33.535817 6.606212
612 2 0.013319 44.890852 28.573420 3.738847
613 1 0.022852 47.804659 29.012213 0.947121
614 1 0.002239 44.213109 32.241532 0.166517
615 4 -0.565902 42.162759 34.840764 2.672694
616 2 0.041216 48.543028 35.039935 4.160317
617 1 0.001691 48.441073 31.781792 0.405396
618 2 0.011529 43.481791 29.006673 1.439496
619 1 0.038558 48.165120 34.173340 0.441590
620 1 -0.027260 45.628889 28.563388 2.956460
621 1 -0.018466 43.685069 31.186349 1.043407
622 1 -0.019216 45.711005 32.358633 2.804643
623 1 -0.029755 48.177388 34.312721 4.897450
624 1 -0.023567 42.690326 28.661329 4.328113
625 2 0.029845 43.073622 31.465295 1.918908
626 1 -0.005671 43.663009 32.766796 5.801081
627 1 -0.023375 43.942609 29.833991 0.800872
628 2 0.018398 42.235736 30.164177 3.061668
629 2 0.115356 43.235818 33.837019 1.276558
630 2 0.014127 43.424792 29.407003 4.508231
631 1 -0.000981 43.912815 33.572747 0.452985
632 1 -0.022293 43.939721 31.427202 6.214686
633 1 -0.001223 47.282812 31.514031 1.176842
634 1 -0.010214 47.104006 33.538467 6.965793
635 1 0.002301 45.968682 29.879331 2.478681
636 1 -0.063616 47.258891 33.968103 1.542167
637 2 0.015936 44.454147 30.898627 3.771844
638 1 0.013202 46.700167 32.696316 1.778964
639 2 0.028089 45.219937 33.234143 3.345131
640 1 -0.018564 45.279280 31.087005 3.032114
641 1 0.006451 48.152913 31.881783 5.480878
642 1 -0.073817 48.446481 28.197971 5.619708
643 2 0.027816 44.256268 33.296051 5.041693
644 2 -0.002366 45.982811 34.945074 3.197117
645 1 -0.007992 49.414888 32.709377 3.586737
646 1 -0.053601 49.772825 31.427300 3.260881
647 2 0.026477 49.848172 33.544389 2.997471
648 2 0.059745 50.343136 31.255056 2.298985
649 4 -0.503967 49.626040 28.894008 3.517335
650 1 0.251735 49.273314 30.309133 3.959148
651 1 0.000481 12.919304 41.986105 3.139466
652 1 -0.057943 10.269099 42.094481 4.164125
653 1 0.039433 11.010926 40.878436 4.190983
654 4 -0.497033 8.309960 40.945837 5.291343
655 2 0.354851 13.379311 41.472999 0.617222
656 1 0.009485 12.329335 40.849410 3.737942
657 1 -0.057379 13.061625 39.657305 3.987048
658 1 -0.065898 11.193425 38.471032 4.833835
659 2 0.010287 8.589849 38.765654 5.696599
660 1 -0.048325 10.385841 39.713900 4.717819
661 4 -0.490918 13.297005 37.195515 4.645361
662 1 0.255345 9.112107 39.734186 5.311937
663 1 0.271379 12.492275 38.439780 4.521401
664 2 0.066345 10.744413 37.578562 5.208010
665 1 0.009935 18.423662 42.080961 1.996152
666 1 -0.005229 14.307130 42.054123 2.889837
667 1 0.000777 17.026611 42.097825 2.346004
668 2 0.017864 15.675395 38.262128 6.753302
669 2 -0.002997 14.299936 36.580381 1.841114
670 1 0.043151 14.452994 39.747959 3.706660
671 1 0.585066 14.609933 36.277907 0.791419
672 1 0.247589 14.793001 37.418956 4.548956
673 2 0.009598 14.245559 40.203323 6.508667
674 1 -0.008359 17.583051 37.790124 4.490356