C400_000 slab -y

12647 atoms
4 atom types

0.000000 56.532850 xlo xhi
0.000000 156.519560 ylo yhi
0.000000 56.532850 zlo zhi

Masses

1 12.011
2 1.008
3 14.007
4 15.999

Atoms # charge

1 2 0.040623 16.326838 56.102256 4.979356
2 2 -0.008688 15.622682 54.252875 6.129689
3 4 -0.664000 17.626739 53.235595 6.152518
4 1 -0.064247 17.075025 56.349874 5.789640
5 1 0.243578 16.137179 53.276491 6.260623
6 4 -0.430855 17.539933 55.238629 0.818909
7 1 0.363451 17.575980 54.003119 0.987959
8 2 0.029471 17.019775 53.525512 1.853430
9 4 -0.489800 17.564625 51.255134 1.222555
10 2 0.053645 18.315529 54.293647 3.247270
11 1 0.297015 18.480948 51.821315 0.249295
12 2 0.064622 14.542163 50.798457 2.881160
13 1 -0.152014 18.409337 53.177095 0.008228
14 4 -0.485305 25.022962 52.081943 6.227899
15 2 0.069166 18.914430 52.057713 4.249375
16 2 0.067022 19.010696 54.708604 4.843390
17 1 0.018744 24.180562 54.584108 6.206738
18 1 -0.070063 20.486634 56.290685 3.614588
19 1 0.290614 22.401805 55.341232 1.768794
20 2 0.128254 23.843090 54.093104 5.267121
21 2 0.077989 23.014773 53.934994 0.225128
22 1 -0.058266 20.704444 52.665003 5.153235
23 2 0.068984 20.180770 53.040411 6.051522
24 1 -0.046390 24.148862 55.757451 0.199582
25 1 0.257804 20.357060 55.037281 3.157455
26 2 0.036292 20.850385 55.531185 6.147894
27 1 -0.076473 19.222657 54.234143 3.848862
28 2 -0.050358 21.245372 51.146490 2.245863
29 2 0.057993 20.226075 52.424271 2.964714
30 1 0.577284 22.212077 51.046612 2.858834
31 1 -0.006288 19.722152 52.718968 3.944649
32 2 0.072409 21.500997 53.352690 4.812651
33 2 0.120198 20.975365 51.617145 5.348332
34 1 -0.007218 23.175953 54.924110 0.691719
35 4 -0.446462 23.219108 51.702619 2.578259
36 4 -0.513309 21.313490 54.402284 2.203496
37 2 0.062955 24.943746 50.392395 4.799715
38 1 0.294532 25.267141 50.708037 5.813585
39 4 -0.531588 31.334959 55.155117 6.068185
40 1 0.007423 28.249460 52.964594 5.940483
41 1 0.629965 29.524909 56.187052 4.059436
42 4 -0.537147 25.762453 55.237985 3.238531
43 2 -0.033946 28.530746 55.875742 3.563655
44 2 -0.014523 26.150346 54.251889 1.595347
45 1 -0.060069 27.666921 54.975098 5.655600
46 4 -0.528555 28.463620 52.566858 0.981408
47 1 0.415518 29.911667 54.691220 1.410580
48 2 0.022817 28.163579 50.939123 2.287319
49 4 -0.644923 27.248146 53.195088 3.328985
50 2 0.334150 28.089765 53.197042 2.794770
51 4 -0.531757 30.314401 51.306852 2.159481
52 2 0.041433 29.506422 54.146979 2.347396
53 4 -0.558723 30.735099 55.328778 3.688122
54 2 0.104291 27.142755 55.775330 5.135292
55 1 0.620925 26.386830 54.384669 2.663111
56 1 0.440567 28.904363 51.225578 1.460189
57 1 0.229108 27.731215 53.737339 5.016023
58 4 -0.467709 29.045352 55.224431 0.723646
59 2 0.126148 25.882016 51.054038 0.386404
60 2 0.067887 26.775100 53.579763 0.210762
61 1 -0.059084 31.393086 54.653570 1.001356
62 2 0.093225 35.290264 56.503176 4.693627
63 2 0.010479 35.604726 56.208350 2.833224
64 2 0.033266 31.765457 52.138770 3.999860
65 1 0.336734 32.001745 54.620572 3.392742
66 1 -0.051434 32.307314 54.458260 2.082989
67 1 0.513878 32.267121 51.101978 4.216171
68 1 -0.000294 36.860837 51.480091 5.795768
69 1 0.028829 35.004372 53.032300 5.088026
70 1 0.340391 32.597326 54.490142 5.724140
71 4 -0.553656 33.770779 51.137992 4.012953
72 1 0.258000 34.036141 50.770056 2.605148
73 1 -0.118292 32.924563 54.307198 4.414859
74 1 0.041643 34.217586 53.661071 4.118473
75 1 -0.000980 33.714578 53.960969 1.689048
76 1 -0.007662 34.638910 53.695734 2.767323
77 1 0.019893 36.208958 52.351256 4.822813
78 1 -0.012986 35.981678 53.063160 2.417325
79 1 0.013921 36.592219 52.168284 3.464606
80 1 0.015115 36.495240 52.861525 1.131280
81 1 0.015787 33.812526 53.871420 0.332741
82 4 -0.643745 31.933408 50.805281 5.630818
83 1 -0.046187 37.542857 52.121090 0.632356
84 2 0.359345 32.765008 50.520846 6.000989
85 1 -0.001410 33.955388 50.363149 0.328740
86 1 0.240761 39.949159 50.574397 0.098172
87 1 -0.008180 37.702441 51.327288 3.055021
88 1 0.004349 37.884119 50.583843 5.347255
89 1 0.032473 38.236891 51.377313 1.717689
90 1 0.005497 38.413840 50.576222 4.056831
91 1 -0.054993 39.391981 50.591203 1.430425
92 2 0.076558 12.541074 44.008523 0.144396
93 1 -0.072816 13.584315 44.361773 0.011095
94 2 0.032450 12.776660 44.596560 2.636879
95 1 0.015995 17.983564 48.473179 3.738258
96 4 -0.525308 15.614694 46.998150 5.448856
97 1 0.287986 16.065993 47.320399 4.095399
98 1 0.009610 18.605474 49.324330 2.713317
99 2 0.046864 18.608475 45.992589 1.416298
100 2 0.079647 18.064572 45.959118 5.116280
101 1 0.213352 15.791440 49.567916 3.906798
102 1 0.072633 15.970989 46.789342 1.595479
103 4 -0.460862 15.276709 49.953802 5.261705
104 4 -0.452056 15.440000 49.259939 1.575646
105 1 -0.014949 18.151438 46.618948 0.558264
106 1 0.220672 16.835289 48.837944 1.113584
107 1 -0.068097 17.037031 47.539801 1.010052
108 1 -0.050565 15.512151 46.689957 2.960819
109 1 -0.022818 13.629311 45.276682 2.320401
110 2 0.056492 17.139719 49.330704 5.895727
111 1 0.030370 18.497734 46.814564 5.595882
112 1 -0.113909 16.603761 48.479882 3.841901
113 1 0.151108 17.997048 49.770086 1.234218
114 1 0.024839 14.342892 45.909666 3.268655
115 1 -0.011584 15.409223 45.788342 0.796386
116 2 0.073187 13.902303 45.894983 4.251671
117 1 0.027519 14.148205 45.146210 1.019243
118 1 0.217657 15.338255 50.059887 2.813537
119 4 -0.518586 22.117301 50.144132 4.040602
120 1 0.538063 22.123570 46.360109 3.167661
121 2 0.087862 20.933228 47.929082 5.807459
122 1 0.280796 23.952490 44.229900 5.160494
123 4 -0.505232 22.119922 45.836376 4.494607
124 1 -0.014877 20.319783 48.366996 4.956617
125 2 -0.013979 23.049856 46.596603 2.597205
126 2 0.096925 22.973851 48.059528 5.562981
127 2 0.018639 24.279691 46.310559 4.528589
128 2 0.327250 20.278392 45.945714 2.917165
129 1 -0.011060 19.095338 49.683259 0.185838
130 1 0.248380 20.724240 49.397384 4.087868
131 1 0.019414 18.928899 47.980235 4.816643
132 4 -0.703591 20.908989 46.349232 2.334261
133 1 -0.052143 19.753142 49.513232 3.194518
134 1 0.120643 23.622985 45.632707 5.163640
135 1 0.204850 28.492967 44.269456 6.251638
136 1 -0.062699 27.242467 46.430520 6.278140
137 1 -0.029174 26.081885 48.520141 6.102289
138 1 0.032054 29.125339 49.840364 6.075060
139 1 0.233243 30.122036 47.851105 6.086014
140 2 0.377680 31.002171 46.117248 6.058117
141 4 -0.613195 30.468322 46.531203 5.445762
142 2 -0.008035 25.963809 46.754768 4.324188
143 1 -0.080967 30.489988 48.830234 1.581119
144 1 -0.031502 29.216736 48.841353 5.291705
145 2 0.015355 25.821245 48.302652 5.050261
146 1 0.305781 26.724994 46.115020 4.873482
147 2 0.054279 28.833348 48.707340 4.312677
148 4 -0.466024 27.079062 45.101639 4.257437
149 1 0.000595 30.922137 46.484266 0.941767
150 2 0.084577 29.799212 44.707909 3.311885
151 2 0.108972 29.213134 44.483282 5.424023
152 1 0.036769 29.510907 48.913178 0.563837
153 1 0.265983 30.881808 49.966022 2.371721
154 1 -0.096765 28.731702 50.089367 0.441958
155 1 0.037193 31.206629 47.622619 1.764381
156 1 0.006178 31.416306 44.080080 0.345910
157 1 -0.010400 35.490891 44.882984 5.230511
158 1 0.082086 32.743777 46.234105 3.083877
159 1 0.016402 36.304812 48.644120 2.899240
160 1 -0.006450 36.117652 46.132853 1.388668
161 1 0.013230 35.510962 48.747454 1.861696
162 1 0.273778 33.954737 47.188781 5.005818
163 1 -0.013202 34.495466 47.388187 0.008779
164 1 -0.065928 32.125590 47.510148 2.814295
165 1 -0.003404 37.076244 47.993249 3.675615
166 1 -0.084919 34.841002 47.052787 6.025059
167 1 0.015922 34.385040 44.918089 4.320921
168 1 -0.017179 32.568968 45.156491 2.204326
169 1 0.326491 32.351122 48.605563 3.661251
170 1 -0.005877 37.003014 45.705087 2.453334
171 1 0.003491 37.450266 46.721268 3.691219
172 1 -0.009410 35.400090 47.458437 1.157388
173 4 -0.489146 33.259513 48.506118 4.834610
174 1 -0.052246 33.734393 46.158470 4.073006
175 1 -0.081523 34.658396 50.080494 1.613204
176 1 -0.001740 31.658202 45.242483 1.113502
177 1 -0.136327 31.790162 49.828211 3.361610
178 1 0.003253 35.601070 45.919288 6.182457
179 1 -0.018622 35.686458 45.240581 0.305326
180 1 0.011689 37.706360 44.556610 2.450616
181 1 -0.000358 38.285800 46.340885 4.716953
182 1 0.020875 39.660749 49.109973 6.118816
183 1 0.059068 39.047358 45.807567 5.572861
184 1 0.595114 42.045342 44.497005 3.842815
185 1 -0.033307 41.960299 48.514855 3.286562
186 2 0.108428 42.886986 47.033585 5.468565
187 1 0.012870 41.972306 47.528750 5.619712
188 4 -0.563553 41.424360 45.499643 3.524005
189 1 0.001638 40.112391 49.836517 2.488777
190 1 0.003665 39.562515 49.810089 3.775116
191 1 0.040288 41.444763 48.344247 4.575909
192 1 0.343665 43.272405 47.804036 3.132636
193 1 0.011013 40.279557 49.113762 4.816715
194 2 0.107126 42.709828 48.701580 0.484701
195 1 0.036936 41.384985 49.196560 2.219126
196 1 0.002270 41.810703 49.194919 0.846859
197 2 0.037277 43.689611 47.093867 3.912953
198 4 -0.428605 43.933546 47.922751 2.073693
199 4 -0.461420 23.894234 43.503929 3.897566
200 1 -0.066738 24.697607 43.696743 6.150782
201 1 0.289700 24.672411 42.213987 3.763801
202 2 0.088532 24.519549 41.636645 2.826014
203 1 0.173751 30.006639 43.667367 3.212829
204 4 -0.505175 27.153374 38.655131 1.487010
205 2 0.061134 27.697470 43.617576 5.784017
206 1 0.251095 29.395152 41.553507 1.970992
207 1 0.623491 27.005182 39.000461 2.649257
208 2 0.061069 29.900777 39.116532 1.658691
209 4 -0.480393 27.411333 38.473608 5.345876
210 1 0.057916 25.385876 42.510305 6.057190
211 2 0.026697 27.773582 38.726808 3.424380
212 1 0.163431 26.721695 39.879518 5.546246
213 2 0.049858 28.842677 40.969347 1.281633
214 4 -0.447532 29.156226 42.962627 2.138844
215 4 -0.521618 26.048661 40.065761 3.067327
216 1 -0.022479 30.476659 39.599326 2.445194
217 1 -0.085465 25.377875 41.748712 4.805641
218 1 0.188644 30.828882 43.022283 4.053342
219 1 -0.046189 30.339253 40.941132 2.810228
220 2 0.079763 26.731946 40.887568 0.157487
221 1 -0.017535 31.063746 41.600345 3.839785
222 1 0.216760 26.090206 40.477606 4.529355
223 1 0.012231 31.395487 38.909532 3.272867
224 2 0.065110 36.899270 43.578080 6.165096
225 1 0.010472 33.659085 39.366694 6.213097
226 1 0.255928 36.538441 37.728210 3.550760
227 4 -0.467968 31.563327 43.678602 5.233396
228 1 0.262762 33.624234 37.968348 0.563094
229 1 -0.068919 36.234716 43.680036 5.300207
230 1 -0.076694 35.317610 40.205857 3.113648
231 2 -0.019321 35.304964 39.723723 5.290092
232 1 -0.060441 33.917970 39.170150 1.291962
233 1 0.245522 35.937336 42.558321 4.595080
234 4 -0.512703 36.702479 41.276719 4.912064
235 1 0.060983 34.950400 39.158900 2.302660
236 1 -0.001702 33.272097 43.913962 2.404329
237 1 -0.080928 34.992251 42.598238 3.617450
238 1 0.265953 32.473947 42.821678 6.094079
239 2 0.087532 37.500637 38.928715 0.781801
240 1 0.015688 34.176872 43.804996 3.440567
241 1 -0.020146 33.728535 41.528239 1.783689
242 4 -0.525350 36.994673 38.852195 4.450289
243 1 0.062232 31.882635 40.857716 4.692188
244 1 -0.009710 33.029680 42.748989 1.634433
245 1 0.047502 33.351682 40.419740 1.029522
246 1 0.005263 32.081708 39.530392 4.388046
247 1 0.045202 34.691738 41.446309 2.847436
248 1 0.460381 36.041423 39.997781 4.468689
249 1 -0.004479 32.081026 42.826221 0.605636
250 1 -0.053315 32.634767 41.480282 5.729854
251 1 0.040229 32.829116 38.720190 5.231478
252 1 -0.079690 35.507974 37.916679 2.599373
253 1 -0.037055 41.250513 38.234288 1.697276
254 1 0.013207 40.403761 40.506058 1.583452
255 2 0.028286 43.768126 40.637050 0.313084
256 1 0.036093 40.063573 39.247299 5.024899
257 1 0.020828 38.364168 43.393420 2.291579
258 1 0.027499 38.273547 42.926012 0.863191
259 2 0.045582 43.460988 42.589242 2.979434
260 4 -0.477890 43.903245 40.566111 3.815362
261 2 0.079254 41.887063 37.743256 0.944448
262 1 0.231152 42.930476 42.508070 5.064422
263 1 -0.026535 41.697259 39.668492 2.017919
264 1 0.046973 39.491145 41.680835 4.016759
265 1 0.075102 39.646002 40.716075 4.592200
266 2 0.084056 42.575810 39.973249 1.381047
267 1 0.190762 43.729066 39.739596 5.020895
268 1 0.179839 43.267225 40.261812 6.210959
269 2 0.051008 40.159175 38.318082 1.330082
270 1 0.026137 39.512298 42.637122 2.934023
271 1 0.007934 39.997989 42.018344 1.732042
272 1 0.120508 43.395716 42.053265 3.936533
273 1 0.023225 39.610298 40.438372 0.381137
274 1 0.033238 39.324094 42.045917 0.477792
275 2 -0.042623 42.246779 43.746498 3.019262
276 2 0.048323 41.794644 39.857809 3.106202
277 4 -0.503383 42.206654 43.826513 5.200633
278 1 -0.008078 40.651110 38.398926 4.118286
279 2 0.032136 44.069778 38.655972 5.005959
280 1 0.203359 17.949244 31.517552 0.597875
281 2 0.002121 16.751796 31.646917 2.987379
282 2 0.043363 23.396161 32.583373 2.217101
283 1 -0.050976 22.551068 33.324093 0.356440
284 2 0.032607 23.697812 32.891345 5.327881
285 1 -0.059320 24.263309 32.435672 6.090102
286 4 -0.579934 25.016647 33.530119 0.494586
287 4 -0.476409 24.526833 36.578459 1.743441
288 2 0.039381 21.355157 31.619872 3.012562
289 1 0.204550 18.985880 31.431362 1.479659
290 2 0.049029 24.699279 31.522613 1.774935
291 1 -0.000936 21.339460 32.033330 2.015494
292 1 -0.034131 20.185658 32.039351 1.176623
293 1 0.004720 22.502848 32.627828 1.584114
294 2 -0.036491 27.067067 32.787131 0.107607
295 2 0.083163 25.231178 33.185730 3.907428
296 2 0.026693 28.388073 32.392524 6.056246
297 2 0.108649 26.818278 33.173370 2.153227
298 2 0.039798 28.340874 32.457267 2.835863
299 4 -0.504765 29.844838 34.359367 0.913837
300 1 0.576654 30.433351 34.721904 1.928917
301 2 0.068014 26.860720 32.848497 4.780972
302 1 -0.053545 27.417204 32.235662 2.323205
303 2 -0.017780 29.942285 34.993350 2.881061
304 4 -0.545973 26.752615 35.034143 4.267065
305 2 0.051716 26.485655 36.089332 2.012868
306 2 0.082999 29.406652 33.789205 4.055875
307 1 -0.031319 25.979909 32.405837 4.254834
308 4 -0.510595 28.796526 35.848217 5.185715
309 1 0.616023 27.327613 35.817165 5.042279
310 2 -0.020698 26.777036 36.452151 5.746943
311 1 -0.019427 29.225447 32.021109 5.442399
312 2 0.081590 30.980135 37.142288 1.998838
313 2 0.028807 27.636541 31.684114 1.384930
314 1 0.651792 25.597655 36.170472 1.325332
315 1 -0.075434 30.068625 33.093263 4.668331
316 2 0.016360 30.737833 32.551141 4.008494
317 2 0.092737 30.614503 33.661956 5.409995
318 2 0.019019 31.207451 34.768972 3.914055
319 1 -0.035619 25.266764 31.484425 5.338682
320 1 0.004675 31.462568 37.565252 2.892079
321 2 0.119431 34.039480 35.908973 0.220932
322 1 0.221887 36.515697 32.216195 6.228136
323 2 0.079457 35.404913 31.655631 3.849596
324 1 0.001733 35.087144 34.338224 6.085867
325 1 0.015751 32.835981 37.346201 4.902613
326 1 0.201161 32.206232 35.234315 3.479109
327 1 0.010343 34.045534 33.361030 3.588100
328 4 -0.534243 35.640611 34.475872 0.951594
329 4 -0.547267 31.941091 34.955400 1.997094
330 1 -0.019308 34.293501 36.821212 0.843358
331 1 0.002512 33.837945 36.498446 5.610168
332 1 -0.024104 35.475571 32.985679 5.579582
333 1 0.003723 34.065108 35.078888 5.292165
334 1 -0.017013 33.478927 34.533893 4.107648
335 1 0.203181 36.013965 35.621847 1.829413
336 1 0.015633 34.977574 32.566988 4.330162
337 2 0.080013 32.580898 32.800782 1.401407
338 1 -0.038070 32.823539 31.808902 0.859483
339 1 -0.012509 35.276105 36.816559 1.800223
340 1 0.223580 36.930921 35.461023 2.823207
341 2 0.045347 33.631880 32.924491 2.659747
342 1 -0.002526 32.200375 36.777757 3.748821
343 1 -0.130574 37.230670 36.566841 3.562025
344 1 0.636379 36.924477 33.851274 0.446104
345 2 0.021873 31.829518 31.462203 0.604462
346 1 -0.017140 41.289476 37.502150 3.160495
347 2 0.023710 42.335492 37.291662 3.494060
348 2 0.060713 37.876817 34.341052 0.794290
349 1 0.040720 41.985400 34.336182 5.402379
350 1 -0.031355 40.350090 36.135963 3.102323
351 2 0.102684 39.446720 36.139031 2.443117
352 4 -0.573709 38.761135 36.595544 0.076634
353 4 -0.547717 37.749885 34.156747 2.999069
354 4 -0.594652 38.515093 34.755592 5.207369
355 1 0.608741 38.329412 33.886437 4.358426
356 2 0.027390 38.705281 32.808904 4.426005
357 1 0.008421 41.790054 34.538591 4.329274
358 1 -0.022156 41.347071 35.013112 2.874185
359 2 0.053211 42.243053 35.366803 2.349745
360 2 0.099895 40.933934 34.117080 2.328959
361 2 0.138926 37.918736 36.582683 4.396901
362 2 0.072787 40.056170 36.108743 4.151382
363 1 0.606014 4.373361 25.192597 0.500429
364 1 0.189854 11.475702 25.178815 0.302821
365 1 -0.038196 12.468467 27.995628 4.298770
366 2 0.001671 12.330420 25.789191 2.585857
367 2 0.053401 11.835797 28.836273 3.974136
368 1 0.146821 7.169073 25.429663 3.187430
369 4 -0.471923 6.454864 25.494853 1.830638
370 2 0.031131 10.933213 27.844288 5.908513
371 2 0.082677 11.110131 26.303829 4.939160
372 2 0.094469 7.142792 26.406514 3.669153
373 4 -0.584411 7.698708 25.661732 5.725676
374 1 -0.031531 11.659088 27.172815 5.390963
375 4 -0.516914 11.061538 27.941664 0.936021
376 1 0.367440 12.057804 28.580264 0.663656
377 1 0.171682 7.195258 25.656114 0.494983
378 1 -0.059394 8.523904 25.482312 0.496058
379 2 0.041755 16.042831 25.212331 4.178641
380 1 0.000281 18.402184 27.329276 4.675763
381 1 0.633149 17.514557 30.931290 3.440420
382 4 -0.452338 16.139370 25.742941 6.206266
383 2 0.055895 13.377591 28.342605 4.833612
384 1 0.021292 17.347397 26.281876 0.699982
385 3 -0.556095 16.655054 27.493349 2.991735
386 2 0.239562 17.141394 28.360443 2.840017
387 1 0.026600 18.011384 25.260820 0.019859
388 1 0.213495 18.791068 25.897913 2.639902
389 1 0.052023 17.355040 26.022752 2.131991
390 2 0.027391 12.953655 28.547990 1.346417
391 4 -0.538937 17.191932 30.343243 4.494346
392 2 0.097945 13.480679 26.071781 5.875641
393 2 0.090786 18.659161 27.354316 5.786264
394 2 0.057168 12.803827 27.402855 3.357566
395 4 -0.583144 14.403566 30.038754 0.196486
396 2 0.042090 16.752572 25.172625 2.416516
397 2 0.051420 16.756316 26.977958 0.148426
398 1 0.095941 16.804848 27.352204 4.483443
399 1 -0.070691 18.741729 26.008714 4.059217
400 2 0.212975 15.667765 27.263813 2.703663
401 1 0.326404 16.224053 26.007271 4.996656
402 2 0.102274 16.373378 28.261913 5.003627
403 4 -0.553938 16.749805 30.645014 0.797320
404 2 0.044407 24.699664 26.056338 4.061988
405 2 0.072158 24.704014 30.769642 4.673911
406 1 -0.040715 22.724525 29.234958 2.845023
407 2 0.020326 21.336004 30.209687 0.410556
408 1 -0.044635 22.100156 27.434927 4.347376
409 1 -0.031838 21.756705 29.967996 5.012776
410 2 0.014313 22.804448 30.322636 2.568204
411 2 0.056123 23.165573 27.363655 4.282354
412 2 0.023072 23.597026 29.870855 0.083294
413 2 0.070723 20.287193 29.152972 1.470968
414 2 0.013357 24.218457 26.279516 1.765474
415 2 0.052802 20.599591 28.849642 3.445046
416 2 0.044554 24.714160 30.273691 3.066317
417 2 0.033403 25.066125 28.023671 2.065645
418 1 -0.033838 24.339151 25.135011 3.637506
419 2 0.046267 18.855270 28.159239 4.136663
420 1 -0.054395 22.275070 25.740955 6.115017
421 2 0.295410 19.265930 27.861170 2.364714
422 2 0.022583 21.938151 30.976182 4.630974
423 1 -0.000717 21.589607 28.884590 3.888931
424 2 0.039350 22.454164 29.654604 5.771480
425 1 -0.040539 23.627081 28.828159 0.435126
426 1 -0.012070 25.110244 28.495659 1.054042
427 2 0.067637 23.399703 25.798472 6.187036
428 1 -0.067336 20.375383 29.967141 5.747492
429 2 0.051375 21.497198 26.669213 3.754644
430 4 -0.589902 18.846153 30.772221 2.832738
431 1 -0.021542 21.186878 29.189746 0.803989
432 2 0.045346 20.532221 27.134198 5.927189
433 4 -0.652870 19.739884 27.096448 2.096183
434 1 -0.021018 21.606531 27.170070 5.804140
435 2 0.066780 23.667260 28.773792 3.275092
436 1 -0.010102 22.463716 28.485270 1.438265
437 2 0.108526 19.535431 30.061463 5.042489
438 1 -0.023615 24.308477 25.220201 2.049953
439 2 0.040948 22.269181 27.458372 1.648135
440 2 0.043291 28.838563 31.259985 4.664841
441 2 0.100517 25.998904 30.970820 5.966576
442 1 -0.006189 26.495849 31.329210 3.217875
443 4 -0.603990 25.364993 28.629151 4.836030
444 2 0.018544 26.716002 25.504999 3.712045
445 2 0.019558 26.551062 25.223784 0.788791
446 1 -0.008697 30.684894 25.449537 4.901940
447 1 -0.013756 28.492528 25.495629 1.755903
448 1 -0.021961 25.947874 29.838998 1.195847
449 2 0.014077 27.561055 27.190428 3.559251
450 2 0.017045 26.921212 29.336623 1.434518
451 1 -0.035026 29.259651 28.496898 2.765853
452 1 0.011095 28.668271 27.289513 3.653686
453 2 0.030776 28.560362 29.280597 2.938342
454 2 0.016871 30.208811 26.422922 2.338099
455 1 -0.036102 31.167793 30.047785 2.316901
456 2 0.011111 31.346635 29.611332 1.273512
457 2 0.016975 31.373996 28.279030 3.439321
458 2 -0.036810 26.576278 27.269991 5.698305
459 2 0.045565 29.154957 25.737796 0.883219
460 2 0.024727 27.784721 26.038571 5.895337
461 2 0.009992 29.422175 28.224225 1.674788
462 2 0.010849 27.878738 28.001819 0.672801
463 1 -0.033142 25.336511 30.772054 2.312738
464 2 0.020673 30.466746 29.538031 4.418130
465 1 -0.073769 29.236941 27.497023 5.055096
466 2 0.021531 30.554656 30.950896 2.244192
467 2 0.012549 28.622485 29.812572 0.641078
468 2 0.067701 27.145343 30.462779 3.601821
469 2 0.021182 26.537723 26.334249 2.251236
470 1 -0.014312 29.322452 26.028213 2.877506
471 1 -0.003614 27.220830 27.258045 0.306621
472 1 -0.038116 27.041225 26.029092 1.364817
473 1 0.630424 26.438516 28.336989 5.344141
474 1 0.003829 30.393226 26.762156 5.462545
475 1 -0.029474 30.583518 29.072695 3.401485
476 2 0.020166 26.031503 30.440656 0.278388
477 1 0.249350 28.757241 28.515646 5.870103
478 4 -0.601851 27.540385 29.347933 5.589166
479 2 0.036451 30.835275 30.593551 5.861492
480 2 0.022337 32.573894 31.125794 3.740216
481 2 0.014326 31.629680 27.946388 1.539666
482 1 -0.016277 36.096926 25.445958 0.186425
483 2 0.046574 31.678203 25.363077 1.203770
484 1 -0.030661 32.226951 27.495242 0.729726
485 2 0.016481 33.117856 28.110943 0.600912
486 2 0.040827 34.491288 31.068385 2.217491
487 2 0.020128 33.757889 29.916124 1.042552
488 2 0.033298 33.048238 29.409654 3.514608
489 1 -0.038336 33.556594 30.689950 1.788712
490 1 -0.028776 33.023641 26.083345 2.597683
491 2 0.018237 32.264297 26.517513 3.285257
492 1 -0.030748 32.609519 30.327916 2.950736
493 2 0.030354 33.935537 26.656922 2.601353
494 2 0.024672 35.639798 26.331082 0.753854
495 1 -0.033816 32.565567 26.000495 1.060349
496 2 0.017885 33.386154 25.582227 0.437678
497 4 -0.488525 36.845607 30.803498 5.801462
498 4 -0.459454 38.238595 28.818660 5.641264
499 4 -0.440670 3.174086 25.102925 0.697414
500 1 -0.035896 3.523420 19.104640 5.867785
501 2 0.041345 3.484989 20.175021 6.147761
502 2 0.018820 5.077753 24.271935 0.636949
503 1 0.016027 10.540985 21.772446 0.496941
504 4 -0.486098 10.261145 21.707787 4.860852
505 2 0.105199 7.048550 21.612772 1.008684
506 4 -0.537917 6.359486 21.552428 5.322646
507 1 0.239234 8.574341 24.973597 2.999891
508 1 0.618667 7.416974 21.710317 4.703640
509 1 0.009698 8.044996 21.620127 0.484412
510 2 0.034790 8.993006 23.715737 1.516569
511 1 0.190800 9.143355 21.431013 2.634611
512 4 -0.522364 7.751034 21.187413 3.314092
513 1 -0.019484 11.583947 21.741532 2.614032
514 2 -0.006270 8.081067 22.545389 5.111833
515 1 -0.006959 11.782611 21.741059 1.190261
516 1 0.217433 10.279478 21.632663 3.368965
517 1 0.177658 11.665931 21.930160 5.479407
518 1 -0.047407 9.251475 21.551688 1.247421
519 2 -0.039719 8.603006 23.907081 6.108747
520 4 -0.536939 9.332792 24.654068 4.169623
521 2 0.080554 6.619603 24.690140 3.835511
522 1 0.579423 8.530670 24.795707 5.462532
523 4 -0.439256 10.784750 24.709951 1.539677
524 1 0.176105 9.158980 24.779860 1.618354
525 1 0.020841 17.692218 20.242256 1.307929
526 2 0.049966 18.687334 20.631364 1.679849
527 1 0.013875 15.393845 19.196528 0.287890
528 1 -0.012025 13.430898 19.107757 4.731387
529 1 -0.002946 15.781624 19.691817 4.472757
530 1 0.359791 17.297223 20.146546 6.251757
531 4 -0.730612 15.543345 22.089840 1.830166
532 2 0.110112 13.676929 22.209774 2.681785
533 1 0.201053 16.835618 20.086335 3.614714
534 1 0.547409 16.628075 22.492790 2.757891
535 1 0.031892 13.631323 19.170578 6.147105
536 2 0.086587 14.978282 22.776348 4.639894
537 2 0.060769 12.730262 21.934795 0.735855
538 2 0.401322 15.285605 22.861643 1.371526
539 1 0.013760 14.561346 19.340084 3.910715
540 4 -0.540013 13.584437 24.481663 1.318215
541 1 0.008070 14.125061 22.494380 5.270237
542 4 -0.574114 17.117913 21.647025 3.806331
543 1 0.252584 12.848173 25.042009 0.206891
544 1 0.023558 14.383975 19.249844 2.509265
545 1 -0.022672 12.891464 22.143496 4.685998
546 2 0.068602 17.800810 19.658484 4.047049
547 1 -0.022046 15.863857 19.859957 5.765366
548 2 0.026013 18.163675 20.263076 5.592749
549 1 0.046446 15.535676 19.385280 1.666823
550 1 0.026093 12.785456 22.064319 3.270270
551 1 0.020400 16.699838 19.887610 2.222424
552 2 -0.048807 17.061596 23.506053 2.667941
553 1 0.653900 13.145681 25.032308 2.673465
554 4 -0.606049 13.831444 24.934676 3.653126
555 1 0.023349 13.079478 18.889399 1.983022
556 2 0.034095 23.938582 24.181245 5.636785
557 1 0.239244 19.240515 25.069063 4.862648
558 2 0.030487 22.368944 20.103810 5.465753
559 1 -0.047214 19.244549 24.655042 2.120171
560 2 0.099972 20.958938 21.250125 5.638809
561 1 -0.046093 24.860716 20.824254 5.585865
562 1 -0.042113 24.639760 23.425641 5.395979
563 2 0.016862 25.011391 22.929678 3.330281
564 1 0.203529 20.587269 22.633977 2.329164
565 1 -0.000668 21.887503 20.882033 6.119022
566 1 0.022864 19.025113 24.471880 0.761840
567 2 0.013779 24.204541 19.870388 5.625528
568 2 0.051193 22.981881 23.425188 1.876002
569 2 0.390211 21.574023 21.059632 2.711259
570 1 -0.048306 19.859823 23.940594 4.301905
571 2 0.073941 23.373812 21.897675 4.266895
572 4 -0.625690 22.887460 19.995584 1.295095
573 1 -0.001511 19.880918 23.738681 2.937571
574 1 0.206235 20.553985 22.566454 1.022149
575 2 0.068045 24.485117 19.680306 3.157039
576 1 -0.012815 23.911606 22.055677 5.230721
577 2 0.026020 22.085882 24.911137 1.607265
578 2 0.113802 20.311480 23.218529 4.960343
579 4 -0.687492 21.319957 21.702754 3.249182
580 1 -0.042931 23.088012 24.421317 1.484917
581 2 0.039047 21.947774 24.925274 5.418162
582 1 0.631933 22.304480 20.370083 0.297105
583 4 -0.631963 21.214167 21.456382 0.307248
584 1 -0.032653 19.758497 23.422180 0.160225
585 2 0.037890 24.428298 22.708474 0.537280
586 2 0.022012 23.302331 24.913320 4.036313
587 2 0.033507 28.109201 21.591773 6.252882
588 2 0.016149 26.662165 19.315450 6.094494
589 2 0.092533 25.135620 19.166515 0.733117
590 1 -0.031550 28.370323 20.739704 5.565473
591 1 -0.038976 27.452903 23.923052 5.267549
592 1 -0.010991 26.009639 20.686008 4.493552
593 2 0.018429 27.365572 22.574939 3.041064
594 1 0.009102 31.139975 21.460994 3.561566
595 1 -0.001852 30.162454 23.696001 3.293583
596 1 -0.009825 26.730152 24.397779 3.953581
597 1 0.001256 29.959689 25.010980 3.746494
598 1 0.007036 30.577720 19.538645 1.976008
599 4 -0.591525 29.060354 21.475433 0.457793
600 2 0.138475 30.213023 19.363168 0.919185
601 1 -0.018441 30.993753 22.780879 3.990901
602 1 0.017452 28.309577 23.951020 1.753077
603 2 0.016432 29.336465 19.504287 3.857666
604 1 -0.038039 29.328507 18.985913 2.892246
605 2 0.010254 26.368986 21.708206 4.178086
606 1 -0.008993 25.202543 23.867926 3.964449
607 1 -0.014199 26.201772 20.571091 1.999083
608 1 -0.052094 26.132827 19.638957 0.757520
609 1 -0.034306 27.134539 19.802058 5.204285
610 2 0.063223 28.099421 23.654566 0.691487
611 1 -0.042188 27.061069 23.543945 2.699634
612 2 0.027876 26.870888 23.064054 5.669864
613 2 0.012703 28.827852 21.153368 4.602974
614 1 0.288137 29.796605 21.895030 1.689184
615 1 -0.031120 29.511408 23.193691 2.178258
616 2 0.037383 25.526509 21.418854 1.717412
617 2 0.076777 25.320106 23.181014 6.275622
618 1 -0.040571 25.590536 19.821111 3.274417
619 2 0.018162 30.314967 20.002726 6.132339
620 2 0.048753 26.946297 18.887060 0.787380
621 2 0.042975 27.271746 20.771318 2.182820
622 2 0.015824 26.096287 23.385183 2.117814
623 1 -0.060662 30.532888 21.037527 2.411963
624 2 0.019900 28.450018 23.585425 5.044240
625 2 0.010935 27.539290 19.029756 4.533169
626 2 0.033549 28.403998 19.242228 2.313767
627 2 0.014002 25.202718 24.639885 1.589750
628 1 -0.047823 33.445831 24.662367 3.016071
629 1 0.001747 36.752465 24.485025 0.803914
630 2 0.019613 37.332451 19.813079 3.998227
631 1 -0.003671 32.633133 20.986049 5.383162
632 2 0.025177 32.574751 24.011263 2.942336
633 2 0.018412 34.779775 19.906672 3.466877
634 2 0.026624 34.352148 20.907036 1.198982
635 1 -0.013440 32.558088 22.382647 5.790408
636 2 0.013571 34.597588 22.629028 4.250389
637 2 0.019071 34.204605 24.267222 2.338195
638 1 -0.061064 36.724891 23.837619 4.847336
639 1 -0.025641 37.673317 19.082649 6.021031
640 2 0.033761 37.611479 24.506511 4.938908
641 1 -0.013979 33.288249 20.038031 6.202928
642 1 0.042451 31.799897 18.874792 2.462827
643 2 0.016553 35.905747 18.904327 4.793355
644 1 -0.008697 31.513448 24.562099 5.644177
645 1 -0.047590 34.482857 21.600431 2.046047
646 2 0.009162 37.230879 21.690544 6.261013
647 2 0.021550 36.264935 23.568869 5.794668
648 2 0.019526 35.066583 22.468818 1.775380
649 2 0.030423 33.446192 21.902345 2.380344
650 1 -0.031846 35.427091 21.819858 4.299292
651 1 0.003629 31.625595 23.226938 5.175690
652 2 0.014112 35.209721 21.279359 5.246891
653 2 0.029219 35.998534 24.368515 4.194414
654 1 -0.021973 32.282610 19.246363 3.739887
655 2 0.033522 36.861624 24.475069 1.860456
656 1 0.001861 32.055282 20.527826 4.212182
657 2 0.015621 35.941267 20.263974 0.264547
658 2 0.020529 36.259230 20.500853 2.708809
659 2 0.020912 33.818712 24.592618 4.091331
660 2 0.048253 37.262186 22.402796 3.243858
661 1 -0.021497 36.931580 22.357147 4.296055
662 1 -0.028673 35.299244 20.800074 3.132601
663 1 -0.030521 38.008628 20.057873 4.854621
664 2 0.023126 37.788460 19.602083 0.601784
665 1 0.230497 40.774149 22.951959 2.164510
666 1 -0.011103 42.861081 23.069484 3.497027
667 4 -0.473836 41.788513 20.795944 4.915592
668 2 0.038763 41.127149 23.418628 6.175216
669 4 -0.664567 39.289842 22.567277 2.301381
670 1 0.357690 43.471408 20.781725 2.635995
671 2 0.073900 41.265248 21.047945 1.461453
672 2 0.016351 38.848347 22.043720 5.428702
673 1 -0.072283 43.487131 22.267352 2.354247
674 2 0.288442 39.003487 22.963747 3.073501