LAMMPS data file via write_data, version 19 Nov 2024, timestep = 3863586, units = real

12647 atoms
4 atom types

0 56.53285 xlo xhi
0 156.51956 ylo yhi
0 56.53285 zlo zhi

Masses

1 12.011
2 1.008
3 14.007
4 15.999

Atoms # charge/kk

986 2 0.02214418274410068 18.194471 5.384218 6.163484 0 0 0
987 1 -0.03737232847831713 17.435129 4.614631 6.132345 0 0 0
988 1 0.007929317622014723 18.332096 0.239774 5.057323 0 0 0
989 2 0.02257989970137636 16.464384 4.946231 5.717243 0 0 0
990 2 0.02778086849333393 17.516503 2.458624 5.848649 0 0 0
991 1 -0.001882681957660366 18.050955 3.353846 5.455741 0 0 0
992 1 -0.06027103123905971 17.58267 3.509216 3.954144 0 0 0
993 2 0.02533042196000242 17.722093 4.552503 3.663016 0 0 0
994 2 0.02996967845654438 16.541527 3.120453 3.899613 0 0 0
995 2 0.02759292400324446 18.275859 2.848899 3.373963 0 0 0
996 4 -0.4771863758342866 23.945979 0.672202 5.725408 0 0 0
997 1 0.002287310777063225 23.165097 4.59071 5.955854 0 0 0
998 1 0.01631770237087234 19.651533 3.178248 5.213908 0 0 0
999 1 0.004105277738197937 24.829604 3.511058 4.463621 0 0 0
1000 1 0.002040330257080894 22.103627 3.920783 5.177856 0 0 0
1001 1 0.04028501395079701 23.874876 2.670475 3.881811 0 0 0
1002 1 0.01471399501844463 23.761272 0.870069 1.990239 0 0 0
1003 1 0.00343262212139679 20.235883 1.944065 4.558781 0 0 0
1004 1 0.0116533895126232 22.525848 2.82774 4.288337 0 0 0
1005 1 0.0006480878570446809 20.718557 3.973357 5.355194 0 0 0
1006 1 0.02786775288049978 21.590338 1.75312 4.057993 0 0 0
1007 1 0.004237508838638398 24.49112 4.352133 5.608416 0 0 0
1008 1 0.01113619231546227 24.366518 1.927109 2.770336 0 0 0
1009 1 0.06110159826758477 24.591372 0.357138 0.966699 0 0 0
1010 1 0.03212522168888312 21.688239 0.504831 3.306554 0 0 0
1011 1 0.01889060475097192 19.425706 0.6973 4.471786 0 0 0
1012 1 0.06971302699127262 22.635394 0.040438 2.367407 0 0 0
1013 1 0.5471411359253728 31.018828 5.984515 3.704411 0 0 0
1014 1 0.02846780553138587 27.628838 4.100875 5.540797 0 0 0
1015 1 0.04027745372415263 28.672457 3.090093 3.84138 0 0 0
1016 1 -0.003578317709100418 25.969235 0.919274 0.743725 0 0 0
1017 1 0.01057161533375697 26.034853 3.225869 3.813562 0 0 0
1018 4 -0.2807748680780792 29.541473 0.717897 4.692956 0 0 0
1019 1 0.008461663651932795 25.746704 2.308399 2.741375 0 0 0
1020 1 0.05957901652746506 29.631715 3.295233 4.828368 0 0 0
1021 1 0.005657456522453558 27.903451 2.142434 1.598204 0 0 0
1022 1 -0.01764883698982015 28.950252 3.851949 5.898124 0 0 0
1023 4 -0.4939741319897701 31.292643 5.357374 2.394198 0 0 0
1024 1 0.0159504302129456 28.59565 1.790032 0.493355 0 0 0
1025 1 0.01502201895005242 27.390408 3.568204 4.276055 0 0 0
1026 1 0.02677357280257951 28.91658 2.523637 2.577865 0 0 0
1027 1 0.0715151050213572 30.194206 2.194299 2.013439 0 0 0
1028 1 -0.04853055178399757 31.051665 3.117242 4.881895 0 0 0
1029 1 -0.06883298168636 29.965551 1.828094 0.675141 0 0 0
1030 1 0.01250708960654435 26.525847 1.816204 1.697418 0 0 0
1031 1 -0.03834352802585796 31.50734 2.026792 2.556037 0 0 0
1032 4 -0.5095002092626222 32.358007 1.24422 0.040746 0 0 0
1033 1 0.5639323662390002 33.821197 2.309006 5.513495 0 0 0
1034 1 0.00787642687223216 33.781063 4.829302 3.05276 0 0 0
1035 1 0.02395741811050911 34.514101 5.481453 5.247694 0 0 0
1036 1 0.05677208973178075 34.099166 1.211223 3.450237 0 0 0
1037 1 -0.07928400787130251 36.555574 3.041917 1.324871 0 0 0
1038 1 0.07630853091130653 33.396156 5.457712 4.240737 0 0 0
1039 1 -0.01938203480012711 35.087715 4.294331 2.791179 0 0 0
1040 1 0.02714530806767271 35.904371 4.878126 5.032422 0 0 0
1041 1 0.2119648372078936 32.950776 4.439967 0.748535 0 0 0
1042 4 -0.7006483548147532 35.220907 1.975352 5.772592 0 0 0
1043 1 0.08494180740879986 31.862162 2.401665 3.955507 0 0 0
1044 1 -0.07036636816304544 34.640358 0.682615 0.88838 0 0 0
1045 2 0.02100454733153548 35.682951 0.319072 0.861718 0 0 0
1046 1 -0.01055713933312534 37.411067 3.712344 3.574263 0 0 0
1047 2 0.04555591767200834 36.295271 1.14105 3.656586 0 0 0
1048 1 -0.1186866712930323 33.240959 1.974775 4.357665 0 0 0
1049 1 0.03453178469561104 36.17479 4.335559 3.776402 0 0 0
1050 1 0.2495980433071617 35.387507 3.722946 1.554206 0 0 0
1051 4 -0.4713988321493765 34.301337 3.800197 0.489762 0 0 0
1052 1 -0.02204602449373853 33.723911 1.167575 2.106375 0 0 0
1053 1 -0.001542635426082114 36.929669 4.875748 6.150066 0 0 0
1054 1 0.1970031230129144 32.71503 4.866885 1.980988 0 0 0
1055 1 0.1895279571270124 32.531285 1.590516 1.735281 0 0 0
1056 2 0.06124567680716975 36.696214 2.698519 0.297848 0 0 0
1057 1 0.05567234107760604 35.418523 0.44744 3.664919 0 0 0
1058 1 0.2673646943474918 31.617797 3.488491 6.171893 0 0 0
1059 1 -0.1303028600578923 32.075873 5.999697 4.590684 0 0 0
1060 2 0.03816539548491334 37.479324 5.699274 1.364847 0 0 0
1061 1 0.01516213355010764 37.640523 3.203723 2.264645 0 0 0
1062 2 0.02805766804565973 38.28617 1.936869 0.068213 0 0 0
1063 2 0.02854391266593995 42.394064 4.635912 5.787304 0 0 0
1064 1 -0.05598156559855001 39.260189 2.02097 0.646361 0 0 0
1065 4 -0.6429662485078713 41.938922 4.083191 1.392389 0 0 0
1066 1 0.506678318860496 41.215685 5.160411 2.111196 0 0 0
1067 1 -0.01879972444645759 39.83874 2.500938 3.065707 0 0 0
1068 1 -0.05016774432660896 42.527065 2.792578 4.127349 0 0 0
1069 1 -0.009749229705508984 39.556673 2.836515 4.416718 0 0 0
1070 2 0.3022458948796742 41.266425 3.794138 0.718831 0 0 0
1071 1 0.02055997116534283 38.262347 3.452472 4.666751 0 0 0
1072 1 0.02218547193386021 38.950079 2.641749 2.043812 0 0 0
1073 1 -0.04315800503408946 41.75812 2.144203 5.329309 0 0 0
1074 4 -0.5737544385190386 39.866431 5.571607 1.779919 0 0 0
1075 1 0.04595130326287122 40.462538 2.533939 5.553012 0 0 0
1076 2 0.04094087323038842 40.807179 2.094001 2.838192 0 0 0
1077 2 0.05062599323216927 41.989299 3.659039 3.724874 0 0 0
1078 2 0.0720412518751834 42.721579 2.05027 3.308441 0 0 0
1079 2 -0.05316331260424373 41.715337 5.613726 2.940756 0 0 0
1080 1 -0.003709887466920871 38.041947 3.867752 6.037452 0 0 0
1081 2 0.05944002616125579 43.456988 3.240987 4.515561 0 0 0
1082 1 -0.05780159610568125 42.496652 5.723032 5.999763 0 0 0
1083 2 0.02916493546341828 39.709468 1.008758 0.807825 0 0 0
1084 2 0.05026250937640621 43.577261 5.952332 6.056882 0 0 0
1085 2 0.0438466942756914 39.942831 2.79265 0.17636 0 0 0
1086 1 0.1937520579803769 43.805954 1.433876 6.23706 0 0 0
1087 4 -0.445903096918435 45.20953 1.400036 5.820079 0 0 0
759 2 -0.009439773216857239 18.51469698835328 12.419270208228696 2.8953362003333325 0 0 0
901 1 0.188874237044862 21.120067 9.821115 6.198255 0 0 0
903 2 0.2769502995455178 22.254732 9.07049 4.431496 0 0 0
904 4 -0.7005074280700068 22.638906 9.59685 5.177479 0 0 0
907 2 -0.04071289579010789 24.305751 8.084314 5.414972 0 0 0
908 1 0.6188029454719145 23.678604 8.750945 6.051925 0 0 0
905 2 0.07591558768940934 24.381672539007717 11.602237416984659 4.271445447525723 0 0 0
906 1 0.1068888915583152 23.59207509355694 12.03022183837791 4.932428898676132 0 0 0
914 4 -0.4933592903994907 28.211263 7.828628 5.782711 0 0 0
915 1 0.4532965315768988 29.497946 7.123306 5.469521 0 0 0
916 4 -0.5243549148805909 29.710345 6.439031 4.054511 0 0 0
913 2 -0.009233617557314017 27.401550456299113 11.747918639231479 4.587560525185218 0 0 0
912 1 0.6401610060219745 26.492862702013618 12.066319419348146 5.182271270396427 0 0 0
910 2 0.05538365926076685 29.77892492227388 10.502547510670842 6.097285054786768 0 0 0
911 4 -0.5774138526233261 26.063171894996444 11.17352073954232 6.325040326723996 0 0 0
917 2 0.007031857436377184 31.762716829295027 10.109381461480163 2.8228899958450255 0 0 0
936 4 -0.5508538500309177 33.225303929801335 11.309069516153627 3.50600768918109 0 0 0
919 2 0.08481765195151582 36.66887379231143 10.67919030598776 5.8208291957010045 0 0 0
920 1 0.1724133454640935 34.027046 9.643868 5.999704 0 0 0
921 4 -0.5554111886699086 31.763004974689586 10.131564473661015 5.108455656514335 0 0 0
922 1 0.6399725469377107 32.31791264542868 10.519057769974044 3.741991030379923 0 0 0
923 1 0.250807824556726 36.02811 9.158793 4.500451 0 0 0
924 4 -0.4962579314094471 36.120408 6.754364 2.55342 0 0 0
925 1 -0.0729044583504603 36.84161 9.592369 5.707685 0 0 0
926 1 0.07136521486293769 31.956482 6.759228 5.859431 0 0 0
927 1 0.3675988953973149 34.673743 9.282714 1.459336 0 0 0
928 1 0.3848103276807913 37.264143 6.520403 2.158381 0 0 0
929 2 0.3895956280936468 34.827911 7.498094 0.903808 0 0 0
930 4 -0.4499622784164694 36.226728 9.250325 0.944854 0 0 0
931 2 0.03568036701925114 33.99083823937445 10.148508422767799 1.1010881973868762 0 0 0
932 4 -0.5574622576888896 34.073646 7.958881 1.151728 0 0 0
933 1 0.2334897477931398 35.830114 9.272378 2.333033 0 0 0
934 4 -0.4375885695943804 34.554665 9.282475 4.563871 0 0 0
935 1 -0.0329992931358652 36.69614 8.931097 3.324303 0 0 0
918 1 0.2340652669131011 32.84149207963181 10.27032186143971 6.165534730569916 0 0 0
12624 2 0.03387929613239158 36.7531838508919 12.194825127245904 0.8891862768797542 0 0 1
806 2 0.06263562000519068 33.849763966968254 12.3194496816431 1.0543378540130408 0 0 0
938 1 -0.06581496514953673 35.894740000790044 12.227071409738423 0.2333552739713292 0 0 0
834 4 -0.7205596611833081 37.37992156997923 12.598592813566793 5.68356512065383 0 0 0
946 2 0.0343126940417422 38.04031297369534 11.767923259352823 3.0607057438232523 0 0 0
940 2 0.04631701729480225 41.844066 6.391758 5.389066 0 0 0
941 2 0.002947142713524701 41.22496011403962 11.082950311850492 5.784955667459436 0 0 0
942 1 0.0443964928379222 38.42916 9.407622 5.650978 0 0 0
943 2 0.0843550607346843 38.38342 9.98932 1.329847 0 0 0
944 1 0.06529691821932412 38.172017 8.710167 3.141362 0 0 0
945 1 0.2531452122482614 39.622933 6.950714 2.529624 0 0 0
947 2 0.0483494111661904 41.674427 7.391414 2.945074 0 0 0
948 4 -0.5592751493334365 41.35196 8.919129 5.287714 0 0 0
949 1 -0.1001517282209862 38.418016 7.412023 2.615774 0 0 0
950 1 -0.1547063208412106 40.638681 7.567692 3.289982 0 0 0
951 1 0.270518771169765 40.308927 8.36414 4.363292 0 0 0
952 1 -0.09367243343777194 38.926146 8.698876 4.457776 0 0 0
953 2 0.04171983978846933 42.977022 9.656742 3.60125 0 0 0
954 2 0.05805141805509666 41.829940522304625 10.758072074208133 4.456686533845932 0 0 0
955 2 0.03531160165773455 39.35430947856302 10.944440332615793 4.126778805270795 0 0 0
956 1 -0.02382256819688763 40.20278207361838 11.971361658455779 2.399856278040961 0 0 0
957 1 -0.03289332567118871 39.03678515028753 11.1921112546141 3.093759882184571 0 0 0
958 1 -0.0547717129233538 38.886237 9.867601 2.291524 0 0 0
959 1 -0.0267761269062573 42.25550222426477 11.543644697593598 3.7841445506517304 0 0 0
960 2 0.02357886636686383 39.911414 9.522476 2.087601 0 0 0
961 2 0.01796924080880145 40.91898818634705 11.320114995196812 1.7754335927026161 0 0 0
962 2 0.03278114200447002 42.62629570889722 11.175902315208377 2.8055861000351956 0 0 0
963 2 0.06102299439253728 43.158293 7.902417 4.146 0 0 0
964 1 -0.03491952762458376 43.489366697708995 12.16666476119373 4.534518033142922 0 0 0
965 1 -0.07569406482361724 43.639191 8.910504 4.06152 0 0 0
966 2 0.05544505913289007 43.862811 9.461006 1.554623 0 0 0
967 2 0.03529130895275253 43.483613 7.728519 2.009236 0 0 0
856 2 0.05296359549355451 40.04664102746096 12.093048549974862 5.464415048400605 0 0 0
972 1 0.03891270152435943 43.94607163566939 11.673429061024294 5.717505248365832 0 0 0
977 4 -0.556953923201254 44.74879786143358 12.104224827814958 1.3605282463174355 0 0 0
973 2 0.05490218755729503 44.959506 8.182586 0.910089 0 0 0
974 1 -0.05512393971782269 44.280532 8.454741 1.744159 0 0 0
975 4 -0.501617705509542 45.112212 8.59052 5.97104 0 0 0
976 1 0.3514313992785847 44.154637 9.191498 5.478753 0 0 0
978 1 -0.01932981034238421 44.934729 8.73744 3.136064 0 0 0
981 2 0.06069901123321425 45.44276 9.662444 2.926224 0 0 0
982 2 0.06663099368110566 45.615082 7.969173 3.52347 0 0 0
985 2 0.02791736715754116 49.36875281711524 11.121187256730185 4.971585377996478 0 0 0
899 1 -0.05613726386800298 49.21767286358558 12.111826750981672 4.49696216709886 0 0 0
895 2 0.03582136304244721 49.562072571306715 12.096881324913168 3.405014117973459 0 0 0
984 2 0.03194778509833417 48.12010653316318 12.291087147108657 4.467003340995542 0 0 0
2353 1 0.04987773676948724 45.11781908585835 12.370785052835707 6.3064594350629655 0 0 0
731 4 -0.5734909534015549 3.9762037461006217 18.62884540417023 1.3217021467083903 0 0 0
746 2 0.03753543669677306 11.344972992131853 16.281814372023554 4.609396199658109 0 0 0
740 2 -0.06551705521605991 11.640944931308297 17.172366948912728 3.3109680187219683 0 0 0
742 1 0.1518117127438978 12.328888286607814 15.876749227903206 5.035830547795188 0 0 0
743 2 0.03722670935989244 12.430115077187608 14.779537738983473 4.788592558576939 0 0 0
763 4 -0.4775932701964046 12.294139934111897 17.27712038414683 1.3679813190203693 0 0 0
764 1 0.5852707850593645 12.493872340102103 17.052163032037374 2.548727778095775 0 0 0
753 1 0.02734636769671032 14.641128947929982 16.005527054526603 5.257919416692502 0 0 0
758 1 -0.04164469143641099 16.767327109786624 14.93057544889338 5.162558471192073 0 0 0
760 1 0.1995992223881732 17.87508855140058 14.461386635445276 4.410588259744392 0 0 0
762 4 -0.496458810253703 13.834977201496747 16.753954941159865 3.156338244550265 0 0 0
765 2 0.138751353404819 15.9517473418411 15.852275193176853 3.4983558607849883 0 0 0
767 1 0.1348646968952991 13.551064859963196 16.678621183516125 4.7035562017645125 0 0 0
768 1 0.03544547970864873 15.760717777686505 15.696604279804994 4.554419109869209 0 0 0
761 4 -0.5439587541584491 17.730432957248205 14.517134376941112 2.9204564605384262 0 0 0
766 2 0.03019418239699112 13.599752430603258 17.75252776408627 5.0202443860243156 0 0 0
12550 1 0.4687853530723967 17.47898753229064 17.370115653743188 1.6747354163609278 0 0 1
12551 4 -0.5592920364597238 16.817957074031845 18.27521027168269 1.9218471576637601 0 0 1
756 1 0.6315443463075947 18.344711114297084 13.362828461565071 2.1943213900155896 0 0 0
754 4 -0.4578274603871748 18.575955077520316 13.278741406038204 0.9973952071890861 0 0 0
775 2 0.07993681287169287 22.518588680302365 12.50450254872113 3.161576626572459 0 0 0
777 1 -0.07099519339278799 22.54718998590676 12.512399445143767 4.283638055546699 0 0 0
773 4 -0.4881617933961145 20.21493495756695 13.52675085166268 4.179050337155558 0 0 0
781 1 0.2560612464345609 21.431412229379625 13.005168537342616 4.956194564698576 0 0 0
785 1 0.1732328600190613 19.030170100222087 14.02296644839763 5.013429200830442 0 0 0
783 1 -0.03832046942158586 22.70359077851819 17.291487982195772 4.087068895870939 0 0 0
784 1 -0.02861402709618034 23.450822663089138 15.907110623536978 4.349196230303122 0 0 0
782 1 -0.05994245011522678 21.159860525153185 16.90136745201267 4.149445379139048 0 0 0
780 2 0.04136458549564192 23.42333286318448 15.366139143240689 3.395433639968311 0 0 0
776 2 0.0689151856469617 21.014979355436534 16.110382764568133 3.388960543225422 0 0 0
772 2 0.02667644871108525 22.998705646726506 15.41741683198167 5.221448420821428 0 0 0
771 2 0.03814999583046504 20.912772157473167 16.466234639786457 5.11694820577047 0 0 0
774 2 0.02325835163038623 22.945421139298485 17.589128121314634 3.0861481260880974 0 0 0
770 2 0.01250540292471233 22.968311821398895 18.059625653820113 4.838079537370946 0 0 0
769 2 0.03475879101015569 20.65328024545917 17.836302905715705 3.94413196009869 0 0 0
786 1 -0.03291557489534698 24.893991312704784 16.30670003845336 4.86740070086136 0 0 0
787 2 0.009868573209798016 25.070417163913035 17.344852864255603 4.644886422383931 0 0 0
798 2 0.01560202697883584 25.010274578283695 18.75990747309359 2.898969719083158 0 0 0
788 2 0.06155138835700587 25.53298305401731 15.650864368028708 4.220121482739466 0 0 0
909 4 -0.6075351414028249 25.94361950851284 13.13080882535598 4.9251617599591455 0 0 0
793 1 -0.03019435852744192 28.655477705321832 17.741280365527732 2.111112691249979 0 0 0
797 2 0.05818770604093112 29.154923827433695 17.449536625993304 1.1504751179103043 0 0 0
792 2 0.03686200359007055 28.46522666459907 15.714339395931306 2.744612344373386 0 0 0
790 1 -0.0529076191229112 28.949244390679475 16.593233669222585 3.1442129686113676 0 0 0
795 2 0.01337905087011603 28.579657873374288 16.829165086672642 4.1851888540576345 0 0 0
794 2 0.02622934570089997 30.059356477848922 16.382543771557057 3.1915907407922743 0 0 0
796 2 0.02033837683989394 27.550568085430996 17.778921898373046 1.931489967087704 0 0 0
791 2 0.02843662704517076 27.166083025144925 15.827014833182819 6.06770655095397 0 0 0
789 2 0.01055025578030563 30.247702923077043 15.915351718769758 6.04707569330414 0 0 0
619 2 0.0066957837541382 28.911693889885733 18.445528566287756 5.745584737200706 0 0 0
805 1 -0.03108601032981301 31.14751734990993 15.419751354427293 5.575554191474919 0 0 0
807 1 -0.05516448069031513 30.79506354700283 14.034114477768856 4.875271261489525 0 0 0
800 2 0.06455222821366566 31.472038082875073 13.296389888810944 5.299019103560083 0 0 0
808 2 0.04973360102257572 29.74610958298034 13.796212782876372 5.052887091065318 0 0 0
603 2 0.01441641460411012 29.53666875893987 18.752769400405683 3.7295178349145877 0 0 0
625 2 0.0106866429149177 26.779095740340395 18.481148652911 4.321995851993752 0 0 0
814 2 0.1002105872517191 35.11378023711975 12.618196395801668 3.1054922196798995 0 0 0
804 2 0.02284727678351974 31.54736384214094 16.10331118077099 4.81549329880955 0 0 0
801 2 0.04718376903177747 30.93812065231006 14.144021582840724 3.7983586006064103 0 0 0
642 1 0.04077546911974968 31.63634427519276 18.635389670692536 2.5166266852197716 0 0 0
810 1 0.3466338099552174 32.083075774255335 17.15737662672366 0.4465543228055299 0 0 0
803 2 -0.05667287888726093 37.02073855157261 13.820545753323259 3.818135958775342 0 0 0
818 1 0.5096129613801977 36.58621435404089 13.447753208695664 4.765368648360263 0 0 0
824 1 -0.1118351751247212 32.31950353816585 17.541451437654782 1.9102485425769926 0 0 0
817 4 -0.5361244114709034 35.21802571492023 13.863164797338607 5.198255677210059 0 0 0
819 1 -0.05766462007261293 35.27748974302487 13.40346866980354 2.2971828652124593 0 0 0
820 2 0.01037884443670564 36.34771881640151 13.80805805271864 2.162882762046477 0 0 0
821 1 -0.06830204998205289 33.22787448243184 16.78538152391317 3.99900403152723 0 0 0
822 1 0.2120797258269147 34.60601080205364 14.669360733509325 2.853859005000951 0 0 0
825 1 0.2598645816546204 33.177711621020315 16.66706363962768 2.5920736376809415 0 0 0
826 4 -0.5538602232211316 33.83358887392032 15.51213309082893 1.9120137724363033 0 0 0
827 1 0.01679709011053023 33.8501740785699 15.833271509145423 4.78723313111763 0 0 0
828 1 0.1647855136579304 34.568029437559105 14.819743538242424 4.180975653860547 0 0 0
829 2 0.02844957960833064 35.29813047008254 17.666273638228155 0.5985852237230541 0 0 0
823 1 0.005188169074364648 32.77084818984538 18.01829264217759 4.610750243189319 0 0 0
813 2 0.05856249578971474 36.36046198538607 16.565154634380555 5.248145825442302 0 0 0
815 1 -0.02428726528213366 36.184497871766325 17.640439499009737 5.4237897805942366 0 0 0
809 1 -0.01003350377138846 33.30093445586291 18.439523703615933 5.801232127659149 0 0 0
643 2 0.01824468838239211 35.43050262050244 18.026550901466493 4.693448462549821 0 0 0
816 1 -0.009386144325309983 34.69446446546429 13.019649316029891 0.8856666719153778 0 0 0
812 2 0.02636729411839356 36.39689462424763 15.474899787560705 0.3575352647153629 0 0 0
639 1 -0.02799495639650751 37.48681479206715 18.49371111453534 5.151324530463048 0 0 0
811 2 0.05664047350836785 34.34456876043496 13.833230668906982 0.2518820287796246 0 0 0
830 2 0.01544179892519191 37.56848401997332 17.2801925701925 1.594886709687006 0 0 0
831 1 -0.03188980372940311 38.13634580915594 16.720446014858076 0.867996001168869 0 0 0
835 2 0.008949146060746416 38.50380039653398 13.482764633447642 2.2145318691019713 0 0 0
836 2 0.03836200881264352 38.15767683586121 17.975955233529596 4.47982908828428 0 0 0
839 2 0.01410655436866121 38.62735197865874 15.807639907716464 1.3288859561585908 0 0 0
968 2 0.08699248660086994 40.822175873870755 13.708172986238871 5.414356180659666 0 0 0
970 1 -0.0212313985122642 41.14960073645102 12.63995942140951 3.5217760109594454 0 0 0
857 2 0.08098926908518204 39.32004226269559 13.355785847227272 4.470804230397308 0 0 0
851 2 -0.01200910058695406 38.8308773931444 15.301287340014868 3.329313114534749 0 0 0
849 4 -0.4878152824209146 38.91608450299799 15.808061232553625 5.425728950085371 0 0 0
840 1 -0.03341586423594715 39.52706831488227 13.232599421320748 1.7273766931580286 0 0 0
843 2 0.08319723619484967 41.60568811269494 13.554689036218535 3.0730679761996207 0 0 0
844 1 0.2215055251007977 39.5368992755277 15.800038516103644 4.074580857388545 0 0 0
845 2 0.05430031032375186 40.471399803741676 15.768259843225 1.6102898721748626 0 0 0
846 1 0.02685972638424917 41.13878416636337 16.271286495777378 2.4067082395262753 0 0 0
847 1 -0.07984627315214975 40.714942239964394 16.351391552121513 3.732539117042647 0 0 0
848 2 0.02791062054470292 40.169157779854196 14.144100571523847 1.7704672824083536 0 0 0
850 1 -0.05901997157534888 40.2825348818918 12.950326197660832 4.776452202426239 0 0 0
852 1 0.07201405195676983 41.625014506602554 16.86958789781014 4.739466943614228 0 0 0
853 1 -0.01779735373523436 42.362516091077616 16.755686492717597 2.0116815009937747 0 0 0
854 1 0.01706874973430981 42.88653900457254 17.37577183089341 4.384777255004479 0 0 0
855 1 0.01007367498245048 43.242917044851815 17.366334576094093 3.0196180028676505 0 0 0
841 1 0.2307858588124825 42.802654982621156 16.564087066263884 0.6583852098887749 0 0 0
859 1 0.05541697042276211 43.68895333414851 17.995200257300304 5.390575453213748 0 0 0
858 4 -0.6054712238173535 43.648186128432556 13.864572283839598 2.635412492059964 0 0 0
681 2 0.01229085941307746 39.15659444264227 18.528731841580232 2.6852816060480165 0 0 0
838 1 -0.05815949331631151 39.27863515735677 12.956357644681262 0.17663559893043018 0 0 0
842 1 -0.05312391850464054 41.104129011538035 16.992580641220368 6.070035373291925 0 0 0
969 2 -0.01331522536483822 43.29244303096167 13.37929066821328 0.5441226099802912 0 0 0
861 1 -0.0129727830342804 39.152945765211754 17.631549390379224 0.16107906104858602 0 0 0
860 1 0.1760606662182215 43.96336714982024 17.12365604839903 0.23393800742891344 0 0 0
983 1 0.5937241093958239 43.895415883674936 12.994395036229358 1.4221785755769751 0 0 0
872 1 0.3185944151369254 44.12217549376375 13.266233721805246 3.9047733069686927 0 0 0
887 1 0.0008189342031119541 44.4316525052853 17.91374402908646 2.5582958737713843 0 0 0
889 1 -0.04826730598392046 44.7951151285712 17.82763742758568 1.142739213773712 0 0 0
868 2 0.03076670093082818 48.43155677346663 15.566880931993925 1.6102297891336075 0 0 0
870 2 0.07425921240432469 46.22523471595521 14.316630707633168 1.7910388584596608 0 0 0
871 2 0.02751576605623057 47.015200569185296 16.719146583142795 1.8080157736560856 0 0 0
873 2 0.0251927992365925 47.35922659722109 13.955422239265351 3.2105549307337755 0 0 0
878 1 0.0008006475263879178 45.50425376017003 13.582957762809285 5.7858604413572285 0 0 0
881 1 0.003250253053723523 45.119566226521826 13.942503166536815 4.5334633237727875 0 0 0
883 1 -0.01118515137433936 45.75164194986912 15.185851147957452 3.848833722949292 0 0 0
884 1 -0.02884523068905396 46.72872236051512 14.728303445174447 2.697663804118851 0 0 0
885 2 0.01314604667789468 48.22073173131363 16.426336760346164 3.12322892663484 0 0 0
886 1 -0.05644746071687014 47.65766627280299 15.91731473799518 2.2914689670167627 0 0 0
888 2 0.03148789108798487 46.31452409008289 15.846186561877868 4.478964104931328 0 0 0
890 2 0.07181759866176754 44.82869071368268 15.741223189503248 3.493453305259728 0 0 0
882 2 0.005103040087562141 48.6660268158775 17.301882396780005 4.7460969309031436 0 0 0
874 2 0.008138122150529767 48.14494189317421 14.496809708182555 4.722491051432454 0 0 0
875 2 -0.005749385565474938 47.083786576881124 15.064388070135049 5.699832296670379 0 0 0
876 1 0.1695773108820514 49.56737787399616 15.81121150230696 5.907922010573791 0 0 0
880 1 0.07303206305692879 46.044991264205905 18.489135605977456 0.7827023674189084 0 0 0
879 1 -0.05506697923265912 49.223238705645535 14.627974930952517 4.859287328693691 0 0 0
892 1 -0.0170872341566278 49.92494131478151 13.293048730358281 5.348975950301866 0 0 0
869 1 0.0002402862488213341 45.21473828404724 18.57425970515907 3.556094592858516 0 0 0
867 1 0.02838691388249628 44.915971400708315 18.547467038427172 4.963295342614644 0 0 0
866 1 -0.05544364158376458 49.68391900710667 17.174316127740706 5.123162270499105 0 0 0
877 2 0.01515408449305894 50.03482397411992 17.996011739166917 5.778170563685957 0 0 0
864 2 0.02358851925557072 49.623903442567816 14.932746779049472 3.84973713497452 0 0 0
891 2 0.01566185089545405 49.99842078593333 16.493343385652157 3.0468206761876604 0 0 0
898 1 -0.02397521447019816 50.557718766902 17.091560490071714 3.8238362461690643 0 0 0
897 2 0.0444677962646414 51.57496376918713 16.61855202514655 4.089734684456171 0 0 0
893 1 -0.0243788977684008 50.76847463809668 18.588745520063526 3.350557589538262 0 0 0
894 2 0.02209797899352971 52.38002412225193 18.562927895958968 4.944564971284314 0 0 0
719 2 0.03809443477399062 53.016701215163366 18.771218214090375 3.2732608993087426 0 0 0
2148 2 0.02701106741388535 51.028671840802346 13.245741962757469 5.1212470646671 0 0 0
733 2 0.02379914114891601 2.6907270907838496 19.421637670036944 5.8067135381002535 0 0 0
729 1 0.02912228160320078 6.18488989365608 19.351980452238834 5.833888424002775 0 0 0
727 1 0.2938761904617661 5.38327269012032 18.77982255000152 1.7700333042668224 0 0 0
728 1 -0.05348792370857155 5.668237680441425 19.044988624961178 3.0636542883456146 0 0 0
726 1 0.01782465605079834 4.577800264856149 19.21154825175337 3.9976592950482503 0 0 0
730 1 0.01144020321620352 4.885703152177933 19.42425929910317 5.334409458027748 0 0 0
732 2 0.05445723156147785 3.568784819977846 19.35013361061916 3.693840376330095 0 0 0
12381 2 0.07507716501618639 3.7754668435905234 22.322712328189883 2.319745283768558 0 0 1
12382 1 -0.0793891267769177 3.644501374378385 22.281504789831846 3.4061592713456768 0 0 1
506 4 -0.5535438116922737 6.156100349144813 22.57428431883627 6.549165677858265 0 0 0
12387 2 0.07576431412759577 4.0466468288214 23.240914063944086 3.8999683907695184 0 0 1
12388 2 0.0572715372868146 4.2352965820836275 21.41475874361194 3.772424005270286 0 0 1
12383 2 0.03892711497745105 2.6022934715405572 22.137280091563216 3.7142727019336097 0 0 1
12384 1 0.618873614682988 3.696775515958918 19.76205797185104 0.3586171959174678 0 0 1
12390 4 -0.5998569089870917 4.4139215522407405 20.67133433866987 0.01231659215938982 0 0 1
505 2 0.07569863805236696 6.318508426626441 21.82823635358687 2.0449418582224808 0 0 0
12389 2 -0.01319052592476064 2.645299263541893 19.74993201181919 56.481709293259584 0 0 0
744 1 -0.05824047847503867 6.496727018813063 18.854301277639042 0.9052005731499759 0 0 0
508 1 0.6313864304404124 7.12380257454363 22.64194373821486 5.804529999921059 0 0 0
748 1 0.02641881868738571 7.031425541949346 19.06296067740182 3.550451079556952 0 0 0
509 1 0.01716509922188887 7.143603398952192 22.14235848425338 1.4171898979589481 0 0 0
738 1 0.0185297752335185 7.84374713617114 19.231045125666185 1.3202660560495612 0 0 0
737 1 -0.01204361543326456 8.149356551631564 19.196957587416694 2.701712638458566 0 0 0
749 1 0.01200972365278976 7.250828165976428 19.05688535390751 4.9472044111386815 0 0 0
747 1 0.02395104414412227 8.606324135392448 19.114236246012812 5.445768375020654 0 0 0
735 1 -0.06416155165979159 8.879813924374586 19.313475331581976 0.38195375766169387 0 0 0
750 1 0.007638758677872519 9.708174240207764 19.15858835510252 4.536500949584247 0 0 0
736 1 -0.006325959909089332 9.443972165138309 19.310446537180283 3.1814865364037277 0 0 0
752 1 0.06112755266043496 10.229673186454242 19.512650961424445 0.8691101079902777 0 0 0
751 1 -0.008584512863140957 10.538052829253733 19.50285297266881 2.222787191856201 0 0 0
739 1 0.001878346185412732 11.045184931170093 19.31040983679889 4.962815497771993 0 0 0
512 4 -0.5314673449315224 7.236890031559404 22.11824710331202 4.363444951941667 0 0 0
734 1 -0.007385278273420105 12.072024807380098 19.62893517395995 4.03548387920376 0 0 0
745 1 -0.0001249545090818482 11.812170014112224 19.82703011635531 2.674223745569814 0 0 0
511 1 0.1977206642433769 8.532303043311845 22.277430367502873 3.5104926536495746 0 0 0
513 1 -0.0148326426609294 10.8629505984715 22.834347089325572 3.1545518886949293 0 0 0
515 1 0.004557811401250821 10.831881927198339 22.85288313716285 1.7555874874884847 0 0 0
516 1 0.1963720944010712 9.722603205253236 22.484410442980508 4.084697763913358 0 0 0
518 1 -0.02736851320041676 8.430815308354859 22.358381442921527 2.032606859933109 0 0 0
504 4 -0.5018238553455908 9.94013357278383 22.375885045350874 5.566210989554209 0 0 0
537 2 0.06111981210450098 11.779944487809848 23.04983271265345 1.2415111717411897 0 0 0
550 1 0.01856631851855417 12.148664263977247 23.072557479318608 3.678178824016233 0 0 0
545 1 -0.01818594013544214 12.355200925319656 23.24507386565681 5.080731159085918 0 0 0
503 1 0.03464170833158624 9.543309626702271 22.709204361874896 1.1451554314231094 0 0 0
757 1 0.03629685425633243 12.526154938789276 20.14505629224245 0.37531489856884503 0 0 0
517 1 0.1629565809698264 11.341858782472082 22.7803944056939 6.061931636489495 0 0 0
514 2 -0.01626682851780218 7.920646166424189 23.37883983576701 6.159094311757161 0 0 0
510 2 0.02687240090765778 8.188541361591874 24.59198809558397 0.24973902552515093 0 0 0
12397 1 -0.01411169405017364 7.016697624143518 22.278650508086994 0.03662827046388263 0 0 1
555 1 0.01648748940962298 12.823951714581922 20.13752585407765 1.7453691073524096 0 0 0
532 2 0.09374614126508771 12.957865445566553 23.240635242328327 2.980686461725848 0 0 0
528 1 -0.005704274531228541 13.396313613456462 19.883041350805588 4.468381812571381 0 0 0