C400_000 slab -z

12647 atoms
4 atom types

0.000000 56.532850 xlo xhi
0.000000 56.532850 ylo yhi
0.000000 156.520934 zlo zhi

Masses

1 12.011
2 1.008
3 14.007
4 15.999

Atoms # charge

1 2 0.040623 16.326838 0.429376 51.549806
2 2 -0.008688 15.622682 2.278757 50.399473
3 4 -0.664000 17.626739 3.296038 50.376644
4 1 -0.064247 17.075025 0.181759 50.739523
5 1 0.243578 16.137179 3.255142 50.268539
6 4 -0.430855 17.539933 1.293003 55.710253
7 1 0.363451 17.575980 2.528513 55.541203
8 2 0.029471 17.019775 3.006120 54.675732
9 4 -0.489800 17.564625 5.276499 55.306607
10 2 0.053645 18.315529 2.237985 53.281892
11 1 0.297015 18.480948 4.710317 56.279867
12 2 0.064622 14.542163 5.733176 53.648002
13 1 -0.152014 18.409337 3.354538 56.520934
14 4 -0.485305 25.022962 4.449689 50.301263
15 2 0.069166 18.914430 4.473920 52.279787
16 2 0.067022 19.010696 1.823029 51.685772
17 1 0.018744 24.180562 1.947524 50.322424
18 1 -0.070063 20.486634 0.240948 52.914574
19 1 0.290614 22.401805 1.190400 54.760368
20 2 0.128254 23.843090 2.438528 51.262041
21 2 0.077989 23.014773 2.596638 56.304035
22 1 -0.058266 20.704444 3.866629 51.375927
23 2 0.068984 20.180770 3.491221 50.477640
24 1 -0.046390 24.148862 0.774181 56.329580
25 1 0.257804 20.357060 1.494351 53.371707
26 2 0.036292 20.850385 1.000448 50.381268
27 1 -0.076473 19.222657 2.297489 52.680301
28 2 -0.050358 21.245372 5.385142 54.283299
29 2 0.057993 20.226075 4.107361 53.564449
30 1 0.577284 22.212077 5.485021 53.670328
31 1 -0.006288 19.722152 3.812664 52.584513
32 2 0.072409 21.500997 3.178942 51.716511
33 2 0.120198 20.975365 4.914487 51.180830
34 1 -0.007218 23.175953 1.607522 55.837443
35 4 -0.446462 23.219108 4.829013 53.950903
36 4 -0.513309 21.313490 2.129348 54.325666
37 2 0.062955 24.943746 6.139237 51.729447
38 1 0.294532 25.267141 5.823595 50.715577
39 4 -0.531588 31.334959 1.376516 50.460977
40 1 0.007423 28.249460 3.567038 50.588679
41 1 0.629965 29.524909 0.344580 52.469726
42 4 -0.537147 25.762453 1.293648 53.290631
43 2 -0.033946 28.530746 0.655891 52.965507
44 2 -0.014523 26.150346 2.279743 54.933815
45 1 -0.060069 27.666921 1.556535 50.873562
46 4 -0.528555 28.463620 3.964774 55.547754
47 1 0.415518 29.911667 1.840412 55.118582
48 2 0.022817 28.163579 5.592510 54.241843
49 4 -0.644923 27.248146 3.336545 53.200177
50 2 0.334150 28.089765 3.334590 53.734392
51 4 -0.531757 30.314401 5.224780 54.369681
52 2 0.041433 29.506422 2.384653 54.181766
53 4 -0.558723 30.735099 1.202854 52.841040
54 2 0.104291 27.142755 0.756302 51.393870
55 1 0.620925 26.386830 2.146963 53.866051
56 1 0.440567 28.904363 5.306054 55.068974
57 1 0.229108 27.731215 2.794294 51.513139
58 4 -0.467709 29.045352 1.307202 55.805516
59 2 0.126148 25.882016 5.477594 56.142758
60 2 0.067887 26.775100 2.951870 56.318400
61 1 -0.059084 31.393086 1.878062 55.527807
62 2 0.093225 35.290264 0.028457 51.835535
63 2 0.010479 35.604726 0.323283 53.695938
64 2 0.033266 31.765457 4.392862 52.529302
65 1 0.336734 32.001745 1.911060 53.136420
66 1 -0.051434 32.307314 2.073372 54.446173
67 1 0.513878 32.267121 5.429655 52.312991
68 1 -0.000294 36.860837 5.051541 50.733394
69 1 0.028829 35.004372 3.499333 51.441136
70 1 0.340391 32.597326 2.041491 50.805023
71 4 -0.553656 33.770779 5.393641 52.516209
72 1 0.258000 34.036141 5.761577 53.924014
73 1 -0.118292 32.924563 2.224435 52.114303
74 1 0.041643 34.217586 2.870561 52.410689
75 1 -0.000980 33.714578 2.570663 54.840114
76 1 -0.007662 34.638910 2.835898 53.761839
77 1 0.019893 36.208958 4.180377 51.706349
78 1 -0.012986 35.981678 3.468473 54.111837
79 1 0.013921 36.592219 4.363349 53.064556
80 1 0.015115 36.495240 3.670107 55.397882
81 1 0.015787 33.812526 2.660213 56.196422
82 4 -0.643745 31.933408 5.726351 50.898344
83 1 -0.046187 37.542857 4.410543 55.896806
84 2 0.359345 32.765008 6.010786 50.528173
85 1 -0.001410 33.955388 6.168483 56.200422
86 1 0.240761 39.949159 5.957236 56.430990
87 1 -0.008180 37.702441 5.204344 53.474141
88 1 0.004349 37.884119 5.947789 51.181907
89 1 0.032473 38.236891 5.154320 54.811473
90 1 0.005497 38.413840 5.955410 52.472331
91 1 -0.054993 39.391981 5.940430 55.098737
92 2 0.076558 12.541074 12.523109 56.384766
93 1 -0.072816 13.584315 12.169859 56.518067
94 2 0.032450 12.776660 11.935072 53.892283
95 1 0.015995 17.983564 8.058453 52.790904
96 4 -0.525308 15.614694 9.533482 51.080306
97 1 0.287986 16.065993 9.211233 52.433763
98 1 0.009610 18.605474 7.207302 53.815845
99 2 0.046864 18.608475 10.539043 55.112864
100 2 0.079647 18.064572 10.572515 51.412882
101 1 0.213352 15.791440 6.963716 52.622365
102 1 0.072633 15.970989 9.742290 54.933683
103 4 -0.460862 15.276709 6.577831 51.267457
104 4 -0.452056 15.440000 7.271693 54.953516
105 1 -0.014949 18.151438 9.912684 55.970898
106 1 0.220672 16.835289 7.693688 55.415578
107 1 -0.068097 17.037031 8.991831 55.519110
108 1 -0.050565 15.512151 9.841676 53.568343
109 1 -0.022818 13.629311 11.254951 54.208761
110 2 0.056492 17.139719 7.200928 50.633435
111 1 0.030370 18.497734 9.717068 50.933280
112 1 -0.113909 16.603761 8.051750 52.687262
113 1 0.151108 17.997048 6.761546 55.294944
114 1 0.024839 14.342892 10.621966 53.260507
115 1 -0.011584 15.409223 10.743290 55.732776
116 2 0.073187 13.902303 10.636649 52.277491
117 1 0.027519 14.148205 11.385423 55.509920
118 1 0.217657 15.338255 6.471746 53.715625
119 4 -0.518586 22.117301 6.387500 52.488560
120 1 0.538063 22.123570 10.171524 53.361501
121 2 0.087862 20.933228 8.602550 50.721703
122 1 0.280796 23.952490 12.301733 51.368668
123 4 -0.505232 22.119922 10.695257 52.034555
124 1 -0.014877 20.319783 8.164636 51.572545
125 2 -0.013979 23.049856 9.935029 53.931957
126 2 0.096925 22.973851 8.472105 50.966181
127 2 0.018639 24.279691 10.221073 52.000573
128 2 0.327250 20.278392 10.585918 53.611997
129 1 -0.011060 19.095338 6.848373 56.343324
130 1 0.248380 20.724240 7.134248 52.441294
131 1 0.019414 18.928899 8.551398 51.712519
132 4 -0.703591 20.908989 10.182401 54.194901
133 1 -0.052143 19.753142 7.018400 53.334644
134 1 0.120643 23.622985 10.898926 51.365523
135 1 0.204850 28.492967 12.262177 50.277524
136 1 -0.062699 27.242467 10.101112 50.251022
137 1 -0.029174 26.081885 8.011491 50.426873
138 1 0.032054 29.125339 6.691268 50.454102
139 1 0.233243 30.122036 8.680528 50.443148
140 2 0.377680 31.002171 10.414384 50.471045
141 4 -0.613195 30.468322 10.000429 51.083400
142 2 -0.008035 25.963809 9.776864 52.204974
143 1 -0.080967 30.489988 7.701398 54.948043
144 1 -0.031502 29.216736 7.690279 51.237458
145 2 0.015355 25.821245 8.228980 51.478901
146 1 0.305781 26.724994 10.416612 51.655680
147 2 0.054279 28.833348 7.824293 52.216485
148 4 -0.466024 27.079062 11.429993 52.271725
149 1 0.000595 30.922137 10.047366 55.587396
150 2 0.084577 29.799212 11.823723 53.217277
151 2 0.108972 29.213134 12.048350 51.105140
152 1 0.036769 29.510907 7.618454 55.965326
153 1 0.265983 30.881808 6.565610 54.157441
154 1 -0.096765 28.731702 6.442265 56.087204
155 1 0.037193 31.206629 8.909013 54.764781
156 1 0.006178 31.416306 12.451552 56.183253
157 1 -0.010400 35.490891 11.648648 51.298651
158 1 0.082086 32.743777 10.297527 53.445285
159 1 0.016402 36.304812 7.887513 53.629922
160 1 -0.006450 36.117652 10.398779 55.140494
161 1 0.013230 35.510962 7.784179 54.667467
162 1 0.273778 33.954737 9.342851 51.523345
163 1 -0.013202 34.495466 9.143445 56.520383
164 1 -0.065928 32.125590 9.021484 53.714867
165 1 -0.003404 37.076244 8.538383 52.853547
166 1 -0.084919 34.841002 9.478846 50.504103
167 1 0.015922 34.385040 11.613543 52.208241
168 1 -0.017179 32.568968 11.375141 54.324836
169 1 0.326491 32.351122 7.926070 52.867911
170 1 -0.005877 37.003014 10.826545 54.075828
171 1 0.003491 37.450266 9.810365 52.837943
172 1 -0.009410 35.400090 9.073196 55.371774
173 4 -0.489146 33.259513 8.025515 51.694552
174 1 -0.052246 33.734393 10.373162 52.456156
175 1 -0.081523 34.658396 6.451138 54.915958
176 1 -0.001740 31.658202 11.289149 55.415660
177 1 -0.136327 31.790162 6.703421 53.167552
178 1 0.003253 35.601070 10.612344 50.346706
179 1 -0.018622 35.686458 11.291051 56.223836
180 1 0.011689 37.706360 11.975023 54.078546
181 1 -0.000358 38.285800 10.190747 51.812209
182 1 0.020875 39.660749 7.421659 50.410346
183 1 0.059068 39.047358 10.724065 50.956301
184 1 0.595114 42.045342 12.034627 52.686347
185 1 -0.033307 41.960299 8.016777 53.242600
186 2 0.108428 42.886986 9.498047 51.060597
187 1 0.012870 41.972306 9.002882 50.909450
188 4 -0.563553 41.424360 11.031990 53.005158
189 1 0.001638 40.112391 6.695115 54.040385
190 1 0.003665 39.562515 6.721543 52.754046
191 1 0.040288 41.444763 8.187385 51.953253
192 1 0.343665 43.272405 8.727596 53.396526
193 1 0.011013 40.279557 7.417870 51.712447
194 2 0.107126 42.709828 7.830052 56.044461
195 1 0.036936 41.384985 7.335072 54.310036
196 1 0.002270 41.810703 7.336713 55.682303
197 2 0.037277 43.689611 9.437765 52.616209
198 4 -0.428605 43.933546 8.608882 54.455469
199 4 -0.461420 23.894234 13.027703 52.631596
200 1 -0.066738 24.697607 12.834890 50.378380
201 1 0.289700 24.672411 14.317645 52.765361
202 2 0.088532 24.519549 14.894988 53.703148
203 1 0.173751 30.006639 12.864266 53.316333
204 4 -0.505175 27.153374 17.876501 55.042152
205 2 0.061134 27.697470 12.914057 50.745145
206 1 0.251095 29.395152 14.978125 54.558170
207 1 0.623491 27.005182 17.531172 53.879905
208 2 0.061069 29.900777 17.415101 54.870471
209 4 -0.480393 27.411333 18.058024 51.183286
210 1 0.057916 25.385876 14.021327 50.471972
211 2 0.026697 27.773582 17.804824 53.104782
212 1 0.163431 26.721695 16.652114 50.982916
213 2 0.049858 28.842677 15.562286 55.247529
214 4 -0.447532 29.156226 13.569006 54.390318
215 4 -0.521618 26.048661 16.465872 53.461835
216 1 -0.022479 30.476659 16.932306 54.083968
217 1 -0.085465 25.377875 14.782920 51.723521
218 1 0.188644 30.828882 13.509349 52.475820
219 1 -0.046189 30.339253 15.590501 53.718934
220 2 0.079763 26.731946 15.644064 56.371676
221 1 -0.017535 31.063746 14.931288 52.689377
222 1 0.216760 26.090206 16.054026 51.999807
223 1 0.012231 31.395487 17.622101 53.256295
224 2 0.065110 36.899270 12.953553 50.364066
225 1 0.010472 33.659085 17.164939 50.316065
226 1 0.255928 36.538441 18.803423 52.978402
227 4 -0.467968 31.563327 12.853030 51.295766
228 1 0.262762 33.624234 18.563285 55.966068
229 1 -0.068919 36.234716 12.851596 51.228955
230 1 -0.076694 35.317610 16.325775 53.415514
231 2 -0.019321 35.304964 16.807909 51.239070
232 1 -0.060441 33.917970 17.361483 55.237200
233 1 0.245522 35.937336 13.973312 51.934082
234 4 -0.512703 36.702479 15.254913 51.617099
235 1 0.060983 34.950400 17.372732 54.226502
236 1 -0.001702 33.272097 12.617671 54.124833
237 1 -0.080928 34.992251 13.933394 52.911712
238 1 0.265953 32.473947 13.709954 50.435083
239 2 0.087532 37.500637 17.602918 55.747361
240 1 0.015688 34.176872 12.726637 53.088595
241 1 -0.020146 33.728535 15.003393 54.745473
242 4 -0.525350 36.994673 17.679437 52.078873
243 1 0.062232 31.882635 15.673916 51.836974
244 1 -0.009710 33.029680 13.782644 54.894729
245 1 0.047502 33.351682 16.111892 55.499640
246 1 0.005263 32.081708 17.001241 52.141116
247 1 0.045202 34.691738 15.085323 53.681726
248 1 0.460381 36.041423 16.533851 52.060474
249 1 -0.004479 32.081026 13.705412 55.923526
250 1 -0.053315 32.634767 15.051350 50.799308
251 1 0.040229 32.829116 17.811443 51.297684
252 1 -0.079690 35.507974 18.614953 53.929789
253 1 -0.037055 41.250513 18.297344 54.831886
254 1 0.013207 40.403761 16.025574 54.945710
255 2 0.028286 43.768126 15.894582 56.216078
256 1 0.036093 40.063573 17.284333 51.504263
257 1 0.020828 38.364168 13.138213 54.237583
258 1 0.027499 38.273547 13.605620 55.665971
259 2 0.045582 43.460988 13.942391 53.549728
260 4 -0.477890 43.903245 15.965521 52.713800
261 2 0.079254 41.887063 18.788377 55.584714
262 1 0.231152 42.930476 14.023562 51.464740
263 1 -0.026535 41.697259 16.863141 54.511243
264 1 0.046973 39.491145 14.850798 52.512403
265 1 0.075102 39.646002 15.815557 51.936962
266 2 0.084056 42.575810 16.558384 55.148115
267 1 0.190762 43.729066 16.792037 51.508267
268 1 0.179839 43.267225 16.269820 50.318203
269 2 0.051008 40.159175 18.213550 55.199080
270 1 0.026137 39.512298 13.894510 53.595139
271 1 0.007934 39.997989 14.513288 54.797120
272 1 0.120508 43.395716 14.478367 52.592629
273 1 0.023225 39.610298 16.093260 56.148025
274 1 0.033238 39.324094 14.485716 56.051370
275 2 -0.042623 42.246779 12.785134 53.509900
276 2 0.048323 41.794644 16.673823 53.422960
277 4 -0.503383 42.206654 12.705119 51.328529
278 1 -0.008078 40.651110 18.132706 52.410876
279 2 0.032136 44.069778 17.875660 51.523203
280 1 0.203359 17.949244 25.014080 55.931288
281 2 0.002121 16.751796 24.884716 53.541783
282 2 0.043363 23.396161 23.948259 54.312061
283 1 -0.050976 22.551068 23.207539 56.172722
284 2 0.032607 23.697812 23.640287 51.201281
285 1 -0.059320 24.263309 24.095961 50.439060
286 4 -0.579934 25.016647 23.001513 56.034576
287 4 -0.476409 24.526833 19.953174 54.785721
288 2 0.039381 21.355157 24.911760 53.516600
289 1 0.204550 18.985880 25.100271 55.049503
290 2 0.049029 24.699279 25.009020 54.754227
291 1 -0.000936 21.339460 24.498302 54.513668
292 1 -0.034131 20.185658 24.492281 55.352539
293 1 0.004720 22.502848 23.903805 54.945048
294 2 -0.036491 27.067067 23.744501 56.421555
295 2 0.083163 25.231178 23.345902 52.621734
296 2 0.026693 28.388073 24.139108 50.472916
297 2 0.108649 26.818278 23.358263 54.375935
298 2 0.039798 28.340874 24.074366 53.693299
299 4 -0.504765 29.844838 22.172266 55.615325
300 1 0.576654 30.433351 21.809728 54.600245
301 2 0.068014 26.860720 23.683135 51.748190
302 1 -0.053545 27.417204 24.295971 54.205957
303 2 -0.017780 29.942285 21.538282 53.648101
304 4 -0.545973 26.752615 21.497490 52.262097
305 2 0.051716 26.485655 20.442301 54.516294
306 2 0.082999 29.406652 22.742428 52.473287
307 1 -0.031319 25.979909 24.125796 52.274328
308 4 -0.510595 28.796526 20.683415 51.343447
309 1 0.616023 27.327613 20.714467 51.486884
310 2 -0.020698 26.777036 20.079482 50.782219
311 1 -0.019427 29.225447 24.510523 51.086764
312 2 0.081590 30.980135 19.389345 54.530325
313 2 0.028807 27.636541 24.847518 55.144232
314 1 0.651792 25.597655 20.361161 55.203830
315 1 -0.075434 30.068625 23.438369 51.860831
316 2 0.016360 30.737833 23.980491 52.520668
317 2 0.092737 30.614503 22.869676 51.119167
318 2 0.019019 31.207451 21.762660 52.615107
319 1 -0.035619 25.266764 25.047207 51.190480
320 1 0.004675 31.462568 18.966380 53.637083
321 2 0.119431 34.039480 20.622659 56.308230
322 1 0.221887 36.515697 24.315438 50.301027
323 2 0.079457 35.404913 24.876002 52.679566
324 1 0.001733 35.087144 22.193409 50.443295
325 1 0.015751 32.835981 19.185431 51.626550
326 1 0.201161 32.206232 21.297318 53.050053
327 1 0.010343 34.045534 23.170603 52.941062
328 4 -0.534243 35.640611 22.055761 55.577568
329 4 -0.547267 31.941091 21.576232 54.532069
330 1 -0.019308 34.293501 19.710420 55.685804
331 1 0.002512 33.837945 20.033186 50.918994
332 1 -0.024104 35.475571 23.545954 50.949581
333 1 0.003723 34.065108 21.452744 51.236997
334 1 -0.017013 33.478927 21.997740 52.421515
335 1 0.203181 36.013965 20.909785 54.699750
336 1 0.015633 34.977574 23.964644 52.199000
337 2 0.080013 32.580898 23.730851 55.127755
338 1 -0.038070 32.823539 24.722730 55.669679
339 1 -0.012509 35.276105 19.715073 54.728939
340 1 0.223580 36.930921 21.070609 53.705955
341 2 0.045347 33.631880 23.607141 53.869415
342 1 -0.002526 32.200375 19.753875 52.780342
343 1 -0.130574 37.230670 19.964791 52.967138
344 1 0.636379 36.924477 22.680358 56.083058
345 2 0.021873 31.829518 25.069429 55.924700
346 1 -0.017140 41.289476 19.029482 53.368667
347 2 0.023710 42.335492 19.239971 53.035102
348 2 0.060713 37.876817 22.190580 55.734872
349 1 0.040720 41.985400 22.195451 51.126784
350 1 -0.031355 40.350090 20.395669 53.426839
351 2 0.102684 39.446720 20.392602 54.086045
352 4 -0.573709 38.761135 19.936088 56.452528
353 4 -0.547717 37.749885 22.374885 53.530093
354 4 -0.594652 38.515093 21.776040 51.321793
355 1 0.608741 38.329412 22.645195 52.170736
356 2 0.027390 38.705281 23.722728 52.103157
357 1 0.008421 41.790054 21.993041 52.199888
358 1 -0.022156 41.347071 21.518520 53.654977
359 2 0.053211 42.243053 21.164830 54.179417
360 2 0.099895 40.933934 22.414552 54.200203
361 2 0.138926 37.918736 19.948949 52.132262
362 2 0.072787 40.056170 20.422889 52.377781
363 1 0.606014 4.373361 31.339035 56.028733
364 1 0.189854 11.475702 31.352817 56.226341
365 1 -0.038196 12.468467 28.536004 52.230392
366 2 0.001671 12.330420 30.742442 53.943305
367 2 0.053401 11.835797 27.695360 52.555026
368 1 0.146821 7.169073 31.101970 53.341732
369 4 -0.471923 6.454864 31.036780 54.698524
370 2 0.031131 10.933213 28.687345 50.620649
371 2 0.082677 11.110131 30.227803 51.590002
372 2 0.094469 7.142792 30.125119 52.860009
373 4 -0.584411 7.698708 30.869901 50.803486
374 1 -0.031531 11.659088 29.358817 51.138199
375 4 -0.516914 11.061538 28.589969 55.593142
376 1 0.367440 12.057804 27.951368 55.865506
377 1 0.171682 7.195258 30.875518 56.034179
378 1 -0.059394 8.523904 31.049320 56.033104
379 2 0.041755 16.042831 31.319301 52.350521
380 1 0.000281 18.402184 29.202356 51.853399
381 1 0.633149 17.514557 25.600343 53.088742
382 4 -0.452338 16.139370 30.788692 50.322896
383 2 0.055895 13.377591 28.189028 51.695550
384 1 0.021292 17.347397 30.249757 55.829181
385 3 -0.556095 16.655054 29.038283 53.537427
386 2 0.239562 17.141394 28.171189 53.689146
387 1 0.026600 18.011384 31.270812 56.509304
388 1 0.213495 18.791068 30.633720 53.889260
389 1 0.052023 17.355040 30.508881 54.397171
390 2 0.027391 12.953655 27.983643 55.182745
391 4 -0.538937 17.191932 26.188390 52.034816
392 2 0.097945 13.480679 30.459852 50.653521
393 2 0.090786 18.659161 29.177316 50.742898
394 2 0.057168 12.803827 29.128778 53.171596
395 4 -0.583144 14.403566 26.492878 56.332676
396 2 0.042090 16.752572 31.359007 54.112646
397 2 0.051420 16.756316 29.553674 56.380736
398 1 0.095941 16.804848 29.179428 52.045719
399 1 -0.070691 18.741729 30.522918 52.469945
400 2 0.212975 15.667765 29.267820 53.825499
401 1 0.326404 16.224053 30.524361 51.532506
402 2 0.102274 16.373378 28.269720 51.525535
403 4 -0.553938 16.749805 25.886619 55.731842
404 2 0.044407 24.699664 30.475295 52.467174
405 2 0.072158 24.704014 25.761991 51.855251
406 1 -0.040715 22.724525 27.296674 53.684139
407 2 0.020326 21.336004 26.321946 56.118607
408 1 -0.044635 22.100156 29.096706 52.181786
409 1 -0.031838 21.756705 26.563636 51.516386
410 2 0.014313 22.804448 26.208996 53.960958
411 2 0.056123 23.165573 29.167977 52.246808
412 2 0.023072 23.597026 26.660777 56.445869
413 2 0.070723 20.287193 27.378660 55.058194
414 2 0.013357 24.218457 30.252117 54.763688
415 2 0.052802 20.599591 27.681990 53.084116
416 2 0.044554 24.714160 26.257941 53.462845
417 2 0.033403 25.066125 28.507962 54.463517
418 1 -0.033838 24.339151 31.396622 52.891656
419 2 0.046267 18.855270 28.372394 52.392499
420 1 -0.054395 22.275070 30.790677 50.414145
421 2 0.295410 19.265930 28.670462 54.164448
422 2 0.022583 21.938151 25.555451 51.898188
423 1 -0.000717 21.589607 27.647043 52.640231
424 2 0.039350 22.454164 26.877028 50.757682
425 1 -0.040539 23.627081 27.703473 56.094037
426 1 -0.012070 25.110244 28.035974 55.475120
427 2 0.067637 23.399703 30.733160 50.342126
428 1 -0.067336 20.375383 26.564491 50.781670
429 2 0.051375 21.497198 29.862420 52.774518
430 4 -0.589902 18.846153 25.759412 53.696425
431 1 -0.021542 21.186878 27.341886 55.725173
432 2 0.045346 20.532221 29.397434 50.601973
433 4 -0.652870 19.739884 29.435185 54.432979
434 1 -0.021018 21.606531 29.361563 50.725022
435 2 0.066780 23.667260 27.757840 53.254070
436 1 -0.010102 22.463716 28.046363 55.090897
437 2 0.108526 19.535431 26.470170 51.486673
438 1 -0.023615 24.308477 31.311432 54.479210
439 2 0.040948 22.269181 29.073261 54.881027
440 2 0.043291 28.838563 25.271647 51.864321
441 2 0.100517 25.998904 25.560812 50.562586
442 1 -0.006189 26.495849 25.202423 53.311287
443 4 -0.603990 25.364993 27.902482 51.693132
444 2 0.018544 26.716002 31.026633 52.817117
445 2 0.019558 26.551062 31.307848 55.740371
446 1 -0.008697 30.684894 31.082096 51.627222
447 1 -0.013756 28.492528 31.036004 54.773259
448 1 -0.021961 25.947874 26.692634 55.333315
449 2 0.014077 27.561055 29.341204 52.969911
450 2 0.017045 26.921212 27.195009 55.094644
451 1 -0.035026 29.259651 28.034734 53.763309
452 1 0.011095 28.668271 29.242119 52.875476
453 2 0.030776 28.560362 27.251035 53.590820
454 2 0.016871 30.208811 30.108710 54.191063
455 1 -0.036102 31.167793 26.483848 54.212262
456 2 0.011111 31.346635 26.920301 55.255650
457 2 0.016975 31.373996 28.252602 53.089841
458 2 -0.036810 26.576278 29.261642 50.830857
459 2 0.045565 29.154957 30.793837 55.645943
460 2 0.024727 27.784721 30.493062 50.633825
461 2 0.009992 29.422175 28.307408 54.854375
462 2 0.010849 27.878738 28.529813 55.856361
463 1 -0.033142 25.336511 25.759578 54.216424
464 2 0.020673 30.466746 26.993602 52.111032
465 1 -0.073769 29.236941 29.034609 51.474066
466 2 0.021531 30.554656 25.580737 54.284970
467 2 0.012549 28.622485 26.719060 55.888084
468 2 0.067701 27.145343 26.068853 52.927341
469 2 0.021182 26.537723 30.197383 54.277926
470 1 -0.014312 29.322452 30.503420 53.651656
471 1 -0.003614 27.220830 29.273587 56.222541
472 1 -0.038116 27.041225 30.502540 55.164346
473 1 0.630424 26.438516 28.194644 51.185021
474 1 0.003829 30.393226 29.769477 51.066617
475 1 -0.029474 30.583518 27.458937 53.127677
476 2 0.020166 26.031503 26.090976 56.250774
477 1 0.249350 28.757241 28.015986 50.659059
478 4 -0.601851 27.540385 27.183699 50.939996
479 2 0.036451 30.835275 25.938082 50.667670
480 2 0.022337 32.573894 25.405838 52.788946
481 2 0.014326 31.629680 28.585244 54.989496
482 1 -0.016277 36.096926 31.085674 56.342737
483 2 0.046574 31.678203 31.168556 55.325393
484 1 -0.030661 32.226951 29.036390 55.799436
485 2 0.016481 33.117856 28.420689 55.928250
486 2 0.040827 34.491288 25.463247 54.311671
487 2 0.020128 33.757889 26.615508 55.486610
488 2 0.033298 33.048238 27.121978 53.014554
489 1 -0.038336 33.556594 25.841683 54.740450
490 1 -0.028776 33.023641 30.448288 53.931479
491 2 0.018237 32.264297 30.014119 53.243905
492 1 -0.030748 32.609519 26.203716 53.578427
493 2 0.030354 33.935537 29.874710 53.927809
494 2 0.024672 35.639798 30.200551 55.775308
495 1 -0.033816 32.565567 30.531138 55.468813
496 2 0.017885 33.386154 30.949406 56.091485
497 4 -0.488525 36.845607 25.728134 50.727700
498 4 -0.459454 38.238595 27.712972 50.887898
499 4 -0.440670 3.174086 31.428707 55.831748
500 1 -0.035896 3.523420 37.426993 50.661377
501 2 0.041345 3.484989 36.356611 50.381402
502 2 0.018820 5.077753 32.259697 55.892213
503 1 0.016027 10.540985 34.759187 56.032221
504 4 -0.486098 10.261145 34.823846 51.668310
505 2 0.105199 7.048550 34.918860 55.520478
506 4 -0.537917 6.359486 34.979205 51.206516
507 1 0.239234 8.574341 31.558036 53.529271
508 1 0.618667 7.416974 34.821315 51.825522
509 1 0.009698 8.044996 34.911505 56.044750
510 2 0.034790 8.993006 32.815896 55.012593
511 1 0.190800 9.143355 35.100620 53.894551
512 4 -0.522364 7.751034 35.344219 53.215070
513 1 -0.019484 11.583947 34.790100 53.915130
514 2 -0.006270 8.081067 33.986243 51.417330
515 1 -0.006959 11.782611 34.790573 55.338902
516 1 0.217433 10.279478 34.898970 53.160197
517 1 0.177658 11.665931 34.601472 51.049756
518 1 -0.047407 9.251475 34.979945 55.281741
519 2 -0.039719 8.603006 32.624551 50.420415
520 4 -0.536939 9.332792 31.877564 52.359539
521 2 0.080554 6.619603 31.841492 52.693651
522 1 0.579423 8.530670 31.735925 51.066630
523 4 -0.439256 10.784750 31.821681 54.989485
524 1 0.176105 9.158980 31.751772 54.910808
525 1 0.020841 17.692218 36.289376 55.221233
526 2 0.049966 18.687334 35.900269 54.849313
527 1 0.013875 15.393845 37.335104 56.241272
528 1 -0.012025 13.430898 37.423875 51.797775
529 1 -0.002946 15.781624 36.839815 52.056405
530 1 0.359791 17.297223 36.385086 50.277405
531 4 -0.730612 15.543345 34.441792 54.698997
532 2 0.110112 13.676929 34.321858 53.847377
533 1 0.201053 16.835618 36.445298 52.914448
534 1 0.547409 16.628075 34.038843 53.771271
535 1 0.031892 13.631323 37.361054 50.382058
536 2 0.086587 14.978282 33.755285 51.889269
537 2 0.060769 12.730262 34.596838 55.793307
538 2 0.401322 15.285605 33.669990 55.157636
539 1 0.013760 14.561346 37.191548 52.618447
540 4 -0.540013 13.584437 32.049969 55.210947
541 1 0.008070 14.125061 34.037253 51.258925
542 4 -0.574114 17.117913 34.884607 52.722831
543 1 0.252584 12.848173 31.489623 56.322271
544 1 0.023558 14.383975 37.281789 54.019897
545 1 -0.022672 12.891464 34.388136 51.843165
546 2 0.068602 17.800810 36.873148 52.482114
547 1 -0.022046 15.863857 36.671675 50.763796
548 2 0.026013 18.163675 36.268557 50.936414
549 1 0.046446 15.535676 37.146352 54.862339
550 1 0.026093 12.785456 34.467313 53.258892
551 1 0.020400 16.699838 36.644022 54.306738
552 2 -0.048807 17.061596 33.025579 53.861221
553 1 0.653900 13.145681 31.499324 53.855698
554 4 -0.606049 13.831444 31.596957 52.876036
555 1 0.023349 13.079478 37.642234 54.546140
556 2 0.034095 23.938582 32.350388 50.892377
557 1 0.239244 19.240515 31.462570 51.666514
558 2 0.030487 22.368944 36.427823 51.063409
559 1 -0.047214 19.244549 31.876590 54.408991
560 2 0.099972 20.958938 35.281507 50.890353
561 1 -0.046093 24.860716 35.707378 50.943297
562 1 -0.042113 24.639760 33.105992 51.133183
563 2 0.016862 25.011391 33.601955 53.198881
564 1 0.203529 20.587269 33.897655 54.199998
565 1 -0.000668 21.887503 35.649599 50.410140
566 1 0.022864 19.025113 32.059753 55.767322
567 2 0.013779 24.204541 36.661245 50.903635
568 2 0.051193 22.981881 33.106444 54.653160
569 2 0.390211 21.574023 35.472001 53.817903
570 1 -0.048306 19.859823 32.591038 52.227257
571 2 0.073941 23.373812 34.633958 52.262267
572 4 -0.625690 22.887460 36.536049 55.234067
573 1 -0.001511 19.880918 32.792952 53.591591
574 1 0.206235 20.553985 33.965178 55.507013
575 2 0.068045 24.485117 36.851327 53.372123
576 1 -0.012815 23.911606 34.475955 51.298441
577 2 0.026020 22.085882 31.620495 54.921898
578 2 0.113802 20.311480 33.313104 51.568820
579 4 -0.687492 21.319957 34.828878 53.279981
580 1 -0.042931 23.088012 32.110316 55.044245
581 2 0.039047 21.947774 31.606358 51.111000
582 1 0.631933 22.304480 36.161549 56.232057
583 4 -0.631963 21.214167 35.075251 56.221914
584 1 -0.032653 19.758497 33.109453 56.368937
585 2 0.037890 24.428298 33.823159 55.991882
586 2 0.022012 23.302331 31.618312 52.492849
587 2 0.033507 28.109201 34.939859 50.276281
588 2 0.016149 26.662165 37.216183 50.434668
589 2 0.092533 25.135620 37.365117 55.796045
590 1 -0.031550 28.370323 35.791929 50.963689
591 1 -0.038976 27.452903 32.608581 51.261613
592 1 -0.010991 26.009639 35.845625 52.035610
593 2 0.018429 27.365572 33.956693 53.488098
594 1 0.009102 31.139975 35.070639 52.967596
595 1 -0.001852 30.162454 32.835631 53.235579
596 1 -0.009825 26.730152 32.133853 52.575581
597 1 0.001256 29.959689 31.520652 52.782669
598 1 0.007036 30.577720 36.992988 54.553154
599 4 -0.591525 29.060354 35.056199 56.071369
600 2 0.138475 30.213023 37.168464 55.609977
601 1 -0.018441 30.993753 33.750753 52.538261
602 1 0.017452 28.309577 32.580613 54.776085
603 2 0.016432 29.336465 37.027345 52.671496
604 1 -0.038039 29.328507 37.545719 53.636916
605 2 0.010254 26.368986 34.823426 52.351077
606 1 -0.008993 25.202543 32.663707 52.564713
607 1 -0.014199 26.201772 35.960541 54.530079
608 1 -0.052094 26.132827 36.892676 55.771642
609 1 -0.034306 27.134539 36.729575 51.324877
610 2 0.063223 28.099421 32.877067 55.837675
611 1 -0.042188 27.061069 32.987687 53.829528
612 2 0.027876 26.870888 33.467579 50.859299
613 2 0.012703 28.827852 35.378265 51.926188
614 1 0.288137 29.796605 34.636602 54.839978
615 1 -0.031120 29.511408 33.337941 54.350904
616 2 0.037383 25.526509 35.112778 54.811751
617 2 0.076777 25.320106 33.350618 50.253540
618 1 -0.040571 25.590536 36.710521 53.254745
619 2 0.018162 30.314967 36.528906 50.396823
620 2 0.048753 26.946297 37.644572 55.741782
621 2 0.042975 27.271746 35.760314 54.346342
622 2 0.015824 26.096287 33.146449 54.411348
623 1 -0.060662 30.532888 35.494106 54.117199
624 2 0.019900 28.450018 32.946208 51.484922
625 2 0.010935 27.539290 37.501876 51.995993
626 2 0.033549 28.403998 37.289404 54.215395
627 2 0.014002 25.202718 31.891747 54.939412
628 1 -0.047823 33.445831 31.869266 53.513091
629 1 0.001747 36.752465 32.046607 55.725248
630 2 0.019613 37.332451 36.718553 52.530935
631 1 -0.003671 32.633133 35.545584 51.146000
632 2 0.025177 32.574751 32.520369 53.586826
633 2 0.018412 34.779775 36.624961 53.062286
634 2 0.026624 34.352148 35.624597 55.330181
635 1 -0.013440 32.558088 34.148985 50.738754
636 2 0.013571 34.597588 33.902604 52.278773
637 2 0.019071 34.204605 32.264410 54.190967
638 1 -0.061064 36.724891 32.694014 51.681826
639 1 -0.025641 37.673317 37.448983 50.508131
640 2 0.033761 37.611479 32.025121 51.590254
641 1 -0.013979 33.288249 36.493601 50.326234
642 1 0.042451 31.799897 37.656840 54.066335
643 2 0.016553 35.905747 37.627305 51.735807
644 1 -0.008697 31.513448 31.969533 50.884985
645 1 -0.047590 34.482857 34.931201 54.483115
646 2 0.009162 37.230879 34.841088 50.268149
647 2 0.021550 36.264935 32.962763 50.734494
648 2 0.019526 35.066583 34.062814 54.753783
649 2 0.030423 33.446192 34.629287 54.148818
650 1 -0.031846 35.427091 34.711775 52.229870
651 1 0.003629 31.625595 33.304694 51.353472
652 2 0.014112 35.209721 35.252273 51.282271
653 2 0.029219 35.998534 32.163117 52.334748
654 1 -0.021973 32.282610 37.285270 52.789275
655 2 0.033522 36.861624 32.056564 54.668706
656 1 0.001861 32.055282 36.003807 52.316980
657 2 0.015621 35.941267 36.267659 56.264615
658 2 0.020529 36.259230 36.030779 53.820353
659 2 0.020912 33.818712 31.939014 52.437831
660 2 0.048253 37.262186 34.128837 53.285304
661 1 -0.021497 36.931580 34.174485 52.233107
662 1 -0.028673 35.299244 35.731559 53.396561
663 1 -0.030521 38.008628 36.473759 51.674541