C600_000 slab +x

11332 atoms
4 atom types

0.000000 156.344519 xlo xhi
0.000000 56.353755 ylo yhi
0.000000 56.353755 zlo zhi

Masses

1 12.011
2 1.008
3 14.007
4 15.999

Atoms # charge

1 1 0.002706 27.585609 5.572968 6.224683
2 1 -0.005008 31.793482 4.825634 6.228376
3 1 -0.011183 34.137867 5.740317 6.243766
4 1 0.001131 31.461754 2.386078 6.112928
5 1 -0.004854 33.720780 3.336975 5.817876
6 1 0.004910 35.563561 2.078945 5.664534
7 1 0.004447 32.049511 1.056882 5.785565
8 1 0.007299 33.415779 0.664697 5.407025
9 1 -0.003473 32.331606 3.556096 6.040083
10 1 0.002161 34.236083 1.972166 5.544415
11 1 -0.018712 36.624604 2.793456 5.852513
12 1 0.000756 34.639545 4.426932 6.051828
13 1 0.008417 36.080659 4.183890 6.066321
14 2 0.022475 39.957520 2.088883 6.175319
15 2 0.018209 37.701918 2.502472 5.855532
16 4 -0.501750 23.730807 8.752476 5.910286
17 1 0.276013 24.313221 7.402076 6.226997
18 1 -0.009536 24.813399 11.244665 5.502656
19 1 0.250795 24.803728 9.751411 5.582859
20 1 -0.009393 31.069852 7.946200 3.358428
21 2 0.020099 29.338831 6.728456 3.103847
22 1 -0.065802 29.454898 10.257466 2.305743
23 1 0.013449 29.335562 11.491665 5.894714
24 1 0.011637 28.404957 10.395753 5.694770
25 1 0.005668 27.996105 7.907538 5.983296
26 1 0.007480 28.898768 9.071234 5.909750
27 1 0.217328 28.807170 11.178897 1.630152
28 2 0.029759 26.930518 9.355008 1.671857
29 1 -0.034164 25.675873 7.124890 6.060475
30 1 -0.007703 30.298708 8.777983 6.143108
31 1 0.027407 26.163411 11.837709 5.152436
32 1 -0.047545 27.595302 8.546014 2.056422
33 1 -0.021276 29.752173 7.729958 2.944092
34 2 0.026629 27.240575 7.528118 2.157329
35 1 0.013006 26.982698 10.583514 5.388275
36 1 -0.065250 26.165504 9.352187 5.367064
37 1 0.049811 26.646552 8.090965 5.717991
38 2 0.011631 27.889293 10.960311 1.100311
39 1 0.008283 28.538717 6.630160 6.170732
40 1 0.014891 28.895835 8.780867 2.468231
41 1 0.036295 30.863334 10.396540 2.852697
42 2 0.027832 31.689759 7.112700 3.612549
43 1 -0.021929 31.623317 9.278749 3.320917
44 1 -0.067163 31.423877 11.800635 2.721641
45 4 -0.504901 35.208055 10.473978 1.902813
46 2 0.073681 33.408501 11.745690 2.387288
47 2 0.031183 32.569769 9.534591 3.802028
48 1 -0.050289 32.884117 12.003283 3.304569
49 2 0.040815 33.203122 11.336163 4.122157
50 1 0.338022 36.237918 9.846205 2.213930
51 1 0.021759 36.599079 11.187766 4.349827
52 2 0.086361 36.695788 9.117042 1.444815
53 1 -0.024110 36.988240 10.139994 3.481228
54 1 -0.009826 35.500061 12.104850 4.093969
55 2 0.083989 34.959180 12.070458 3.138021
56 1 0.022175 37.353921 11.374803 5.557393
57 1 -0.039943 38.426732 10.516887 5.860657
58 4 -0.491142 38.372847 8.203187 1.707954
59 1 -0.021092 39.341365 12.318958 2.405666
60 1 -0.098730 38.147307 9.404184 3.793809
61 2 0.051640 39.832624 7.992080 3.031306
62 1 0.362250 38.858949 8.449581 2.812715
63 1 -0.007325 40.495432 12.104591 3.192586
64 1 0.268014 38.832668 9.502256 4.974560
65 4 -0.542359 40.001632 8.598520 5.189279
66 1 -0.067411 42.412173 10.633769 3.663387
67 1 0.056143 42.571223 11.138487 4.994804
68 2 0.018288 41.202882 10.571291 1.814195
69 1 -0.021648 41.814583 12.225900 5.318918
70 2 0.031678 39.141625 11.766615 1.490584
71 1 -0.014149 41.369518 11.079537 2.791005
72 2 0.013884 43.218292 9.403533 2.146197
73 1 0.236552 43.310384 9.770148 3.189337
74 1 -0.146889 43.677728 10.689585 5.813696
75 2 0.161543 41.962915 7.202537 6.018449
76 1 -0.007432 43.822714 12.095399 0.337592
77 1 0.018399 45.901228 12.470226 4.056928
78 2 0.035044 49.249818 12.288176 2.075003
79 4 -0.493359 44.419394 9.151433 4.016776
80 1 0.558146 44.523441 9.716770 5.366898
81 1 0.020350 44.847596 11.414130 0.857485
82 1 0.026591 45.405231 12.281742 2.882445
83 1 0.060195 45.725916 11.031784 1.764879
84 2 0.023162 22.982557 18.585382 5.307967
85 1 0.257649 30.758680 12.777160 2.046548
86 4 -0.480430 29.396147 12.643066 1.460422
87 1 -0.051884 27.224252 18.620566 2.799080
88 1 -0.046043 27.432904 17.933593 0.475676
89 1 0.053314 26.743362 18.713612 1.504345
90 1 0.256419 28.238878 16.860886 0.738676
91 1 -0.067724 28.839863 17.710153 4.336399
92 2 0.087326 29.983982 14.678670 0.617545
93 2 0.069569 29.585970 16.926113 4.553580
94 1 0.019165 30.733214 13.397128 6.233439
95 1 0.029943 29.324749 12.943301 5.821398
96 4 -0.489167 28.704509 16.610084 2.110889
97 1 0.249642 28.165512 17.599861 3.165575
98 1 0.018959 28.429372 18.699407 5.329039
99 1 0.030801 31.020496 14.858051 0.980022
100 4 -0.564833 34.765297 16.628009 0.452236
101 2 -0.035605 34.760590 14.598663 0.631802
102 1 -0.058972 36.125693 16.630557 3.889879
103 1 0.202183 37.168660 13.573141 2.291840
104 1 0.613995 34.451725 15.599509 1.057274
105 1 0.212654 36.846508 15.470644 3.604529
106 1 0.023795 35.204531 13.056856 5.070360
107 1 -0.059951 31.579554 13.951417 1.759094
108 1 -0.081851 36.010138 18.749584 5.183180
109 1 0.003675 32.688455 15.904298 5.229491
110 4 -0.548575 33.533536 15.521494 2.253381
111 1 0.027238 33.794242 14.973635 5.547154
112 2 0.056573 36.747835 13.005833 1.400241
113 1 0.008107 35.999038 13.343402 6.236205
114 2 0.001401 33.798843 13.522396 1.594553
115 1 0.214154 33.089379 14.077890 2.211216
116 2 0.033342 31.543204 17.508200 5.916174
117 1 0.011490 32.381236 16.844891 6.068581
118 2 0.063508 32.012279 15.696269 4.365210
119 2 0.034962 32.059056 13.872575 4.188661
120 1 0.018689 36.612235 17.472788 4.943200
121 1 0.053488 34.058202 13.848373 4.787843
122 1 -0.023650 33.006543 13.536178 3.737496
123 3 -0.439339 36.327948 14.507799 2.704106
124 2 0.052062 31.531212 15.765279 0.644805
125 2 0.095367 35.263898 16.965075 3.324938
126 1 -0.016041 42.520415 14.003604 1.159306
127 1 0.034569 38.270168 16.194132 0.764806
128 2 0.010968 38.733391 15.277881 1.124641
129 1 -0.010367 38.514319 17.455473 1.251446
130 1 0.022251 38.853869 14.032357 4.122223
131 1 0.001645 42.855671 14.962705 3.437970
132 1 -0.050658 37.987169 15.067875 4.487574
133 1 0.015087 42.154088 14.935799 2.131084
134 1 -0.018546 41.074056 15.800979 1.906036
135 1 0.025641 41.421741 16.891503 4.059415
136 2 0.016883 38.702853 17.263430 3.404643
137 1 0.006323 38.334130 15.789218 5.633295
138 1 -0.012714 40.646063 16.738745 2.808439
139 1 0.054447 37.792132 18.601524 0.762065
140 1 -0.008043 43.190104 15.995911 5.640168
141 1 0.025554 43.571310 13.061012 1.400271
142 2 0.015831 42.021115 13.875081 0.135838
143 1 -0.003616 40.779692 12.681331 4.482203
144 1 -0.000719 40.115228 14.347215 6.157140
145 1 -0.056420 41.802671 17.919317 6.225038
146 1 -0.020772 37.641215 17.014056 5.826965
147 1 -0.018945 39.950469 13.727661 4.879828
148 2 0.086824 40.443479 18.694463 4.807882
149 1 0.004957 42.539506 15.923732 4.338305
150 1 -0.047089 38.443956 13.310703 2.913438
151 1 0.188628 39.370423 17.555249 2.544690
152 2 0.050260 40.545536 15.702787 0.971364
153 1 -0.004325 41.133784 17.899770 4.950504
154 1 0.005542 44.254783 15.125559 5.956933
155 1 0.031197 48.973733 14.460272 2.350309
156 1 0.009294 49.270141 15.754559 1.772759
157 1 -0.007396 48.373286 14.378105 3.645950
158 1 0.015109 48.738960 16.889153 2.387149
159 1 -0.011467 49.462231 13.307676 1.687227
160 1 -0.011098 47.926789 15.507555 4.272693
161 2 0.035218 47.309518 15.495253 5.202643
162 1 -0.002191 44.570004 14.184013 4.951338
163 2 0.027878 48.226075 13.361972 3.992929
164 1 0.004385 49.075739 18.185287 1.811795
165 1 0.176621 46.892421 18.200367 5.474410
166 1 0.002533 50.006433 18.331023 0.774672
167 4 -0.534081 46.624081 13.916289 0.306212
168 1 0.007569 49.973241 13.438266 0.389863
169 1 -0.002748 45.727407 13.316485 5.182272
170 1 0.013760 44.316923 13.169958 2.643494
171 1 -0.059807 47.539445 18.050744 4.211582
172 1 0.008512 44.000984 14.117544 3.699460
173 1 0.023806 48.093390 16.784678 3.714007
174 1 0.001977 50.107881 15.827451 0.640262
175 1 0.003547 50.502858 17.141556 0.168286
176 1 -0.019241 21.041416 22.140384 5.951149
177 1 -0.000548 23.890720 23.254310 5.239937
178 1 -0.001243 23.897188 22.532189 2.866349
179 2 0.019057 21.804166 20.657837 4.616909
180 1 -0.020320 21.865572 21.066818 5.601584
181 1 -0.003147 22.932462 24.253165 4.898706
182 1 -0.015043 22.348548 24.308146 3.599354
183 1 -0.000257 24.394244 22.418899 4.213581
184 1 0.005583 24.436205 21.685550 1.867449
185 2 0.021079 20.388563 22.725552 5.214126
186 1 0.012543 21.638913 24.876133 0.872170
187 1 0.007700 24.032914 21.865176 0.519634
188 1 0.001167 22.880582 23.528715 2.570424
189 1 0.021459 23.174755 22.942817 0.187413
190 1 -0.002676 22.524709 23.725682 1.200787
191 1 0.001353 25.258483 21.336259 4.541095
192 1 0.001171 25.330843 20.663055 2.158272
193 1 0.017601 26.841284 20.341270 6.084311
194 1 -0.004291 27.232723 19.458255 5.060126
195 1 0.025461 30.361657 23.402350 0.213797
196 1 0.019685 26.745142 19.574197 3.742569
197 1 -0.028705 26.851233 24.096100 3.560463
198 1 0.190701 27.712995 22.313993 1.820000
199 1 0.010171 25.965419 19.835134 1.157162
200 1 0.185985 27.662819 22.811365 3.167601
201 1 0.007718 25.839650 21.346789 5.860355
202 1 0.464824 29.137833 21.123635 3.206658
203 4 -0.545255 28.576276 22.091654 4.168942
204 4 -0.530240 28.839143 21.227000 1.759851
205 1 0.002563 25.744417 20.537440 3.508675
206 2 -0.022990 29.950815 20.481860 3.584609
207 1 0.002372 29.985840 24.866344 2.266932
208 1 0.020380 30.621102 23.700731 1.658163
209 2 0.055877 27.518245 24.132840 5.661403
210 1 0.000408 31.066958 24.306999 4.493674
211 2 0.048060 31.281942 24.591791 5.525293
212 1 0.003051 26.846619 24.629260 4.926597
213 1 0.017594 26.060969 24.896930 2.848632
214 2 0.038337 34.058264 19.032532 2.992103
215 2 0.047044 35.284089 19.115458 4.482698
216 2 0.055000 32.656384 22.586267 5.707785
217 1 -0.018602 37.224454 22.972842 4.132114
218 1 -0.002711 32.254745 20.019755 0.002875
219 1 -0.013563 36.664316 21.984178 1.886262
220 1 -0.009653 35.510272 23.989760 2.650443
221 1 -0.017780 33.155874 21.273751 4.073239
222 1 0.015758 31.815035 21.384060 0.427054
223 1 0.004351 31.455800 22.835915 2.406497
224 1 0.020041 34.573008 24.973356 2.419722
225 1 0.066548 33.160282 19.239067 0.911291
226 1 0.012424 31.670203 23.191803 3.851209
227 1 -0.016845 34.958769 23.006216 0.427332
228 1 0.048318 34.185416 24.098255 0.126189
229 1 0.009050 32.008594 21.643907 1.828505
230 2 0.069751 33.802197 20.686989 4.846088
231 1 -0.031988 36.014440 24.835030 4.936311
232 1 0.005580 35.713213 23.007386 1.643414
233 1 -0.010913 33.435912 19.565477 2.293571
234 1 0.014874 36.202599 23.913679 3.898800
235 2 0.047935 36.597532 24.876734 5.886877
236 1 0.001437 32.894108 20.822078 2.706626
237 1 -0.012011 32.545093 22.355811 4.636838
238 1 0.017136 36.713403 20.785065 1.131235
239 1 0.012600 37.377169 22.009145 3.126968
240 1 -0.078267 33.929631 25.025478 1.160814
241 2 0.020444 41.845059 19.054484 0.202973
242 1 0.002560 41.241713 24.293391 6.185664
243 2 0.072847 42.022080 24.032778 5.445768
244 1 0.013168 40.197178 24.401590 0.474554
245 2 0.030910 37.713606 22.863674 5.110776
246 2 0.033797 43.554345 23.344285 0.917750
247 1 -0.059829 41.603069 24.385035 1.106612
248 2 0.023953 39.537059 23.106376 5.505106
249 1 -0.060405 37.597726 19.746704 1.607669
250 1 0.258301 38.435574 19.973723 2.704722
251 1 0.007532 42.562325 23.584646 0.482172
252 1 -0.067554 38.387619 21.088210 3.461200
253 2 0.058843 39.001410 21.196197 4.329107
254 4 -0.515416 39.570492 19.034753 3.047576
255 1 0.244167 49.272750 23.208015 0.660735
256 1 -0.069446 48.393935 23.036276 1.638508
257 2 0.015651 46.311947 23.887360 4.991110
258 1 0.002186 48.406840 19.351353 2.260888
259 2 0.055492 46.904873 22.617554 3.967753
260 1 -0.016470 47.322608 21.712658 3.472386
261 2 0.093259 45.446561 21.308606 5.439193
262 2 0.014463 48.477964 22.607693 5.955298
263 1 0.160421 46.162301 19.341348 5.868949
264 1 -0.077135 46.000231 20.444872 5.036744
265 1 -0.012351 48.637922 20.618873 1.646197
266 1 0.018712 48.134422 21.734128 2.325163
267 1 0.005961 46.998764 20.483631 3.985166
268 1 0.005163 47.547198 19.247162 3.406956
269 2 0.102729 47.986301 23.934015 2.062279
270 1 -0.050947 49.829444 22.027212 0.009291
271 4 -0.493488 49.680887 24.628635 0.143240
272 1 0.611583 44.373484 24.934507 2.120433
273 4 -0.536710 45.500402 24.666373 2.572957
274 2 -0.062425 44.203105 24.946898 1.023368
275 4 -0.513059 44.788144 23.388837 6.237053
276 1 0.342675 45.717515 24.135672 5.955077
277 1 0.015019 49.553309 20.749146 0.585039
278 1 0.002793 50.242765 19.630558 0.134762
279 2 0.021901 50.176595 23.791747 4.675802
280 1 -0.024666 50.450649 24.258907 5.619531
281 2 0.073452 17.696464 31.250357 2.644224
282 1 -0.038738 24.766295 26.626899 0.448128
283 2 0.118941 19.124110 27.879800 0.020663
284 4 -0.448762 19.178441 27.967475 5.254965
285 1 -0.054000 20.096984 31.000278 2.403813
286 2 0.040209 22.281134 28.941151 5.390689
287 1 0.011869 22.457533 28.909625 4.331644
288 1 0.030364 22.870949 28.591986 1.334184
289 1 -0.099803 20.926891 26.182370 4.327967
290 1 -0.062558 20.959253 25.668552 1.888921
291 1 0.004674 23.785233 27.958800 2.281698
292 1 -0.026693 24.242839 27.399107 4.761526
293 1 0.006048 23.515369 28.080305 3.783230
294 1 -0.002969 22.440571 25.119364 5.869449
295 1 0.039579 21.396393 25.360190 3.277709
296 1 0.036614 21.003673 30.565916 1.299507
297 1 0.282888 20.547794 30.520861 3.661630
298 1 0.252490 20.022052 26.726242 1.592851
299 1 0.466279 19.789490 27.245283 4.074943
300 1 -0.009600 21.751669 29.784068 3.463921
301 1 0.030870 21.930991 29.617725 1.999813
302 1 0.017282 24.479156 26.737249 1.741894
303 1 0.030421 21.402901 26.022557 5.622060
304 1 -0.065646 19.869926 27.069698 0.262493
305 4 -0.493087 19.357249 27.549347 2.676186
306 4 -0.547387 20.004098 30.833331 5.063975
307 2 0.016098 24.080615 27.651393 5.844418
308 1 0.021288 30.186663 25.127728 3.715240
309 2 0.033055 25.273284 30.270655 6.172562
310 1 -0.002178 25.204460 26.404023 4.286744
311 2 0.077354 28.235381 28.419170 5.458196
312 2 0.051855 29.893015 26.565536 5.384951
313 1 0.002007 28.639591 27.016530 2.191583
314 1 0.025890 28.780499 27.149184 3.627481
315 1 0.029664 29.116725 25.646450 0.099515
316 1 0.007760 29.655673 26.304445 4.321973
317 1 0.012575 28.000603 28.099072 1.437218
318 1 0.255646 30.919549 31.242223 4.532955
319 1 -0.011638 28.146622 28.269421 4.349591
320 1 -0.056643 27.440214 30.611053 0.183219
321 1 0.283368 27.020953 30.452133 1.522771
322 2 0.055495 27.282374 30.236449 4.138850
323 1 0.007658 29.244253 25.887877 1.531751
324 1 -0.050073 27.448054 29.251707 2.161376
325 4 -0.476249 30.890830 29.787487 5.008089
326 1 -0.006296 25.315784 26.004109 2.820164
327 2 0.068500 29.838498 30.756693 2.845313
328 1 0.018852 27.627403 29.327311 3.611967
329 1 -0.024843 26.133430 25.826436 5.246067
330 1 -0.003989 37.002680 26.527772 0.785730
331 1 -0.003638 35.763821 29.690708 4.386420
332 1 0.053935 34.936322 25.676475 4.752934
333 1 -0.009501 36.418194 28.135935 2.504151
334 1 0.016919 34.448164 29.578306 2.341130
335 2 0.042890 32.711562 30.830290 1.906465
336 1 0.002427 35.253286 28.532849 1.767212
337 1 -0.131112 32.616559 26.807844 1.986674
338 1 0.006431 34.759293 30.156244 3.650982
339 2 0.078003 36.034387 30.204663 5.349351
340 1 0.009225 33.400289 30.107360 1.544477
341 1 -0.008330 35.110389 28.129771 0.429518
342 2 0.095960 31.856341 27.557458 1.721109
343 1 0.246860 33.413110 27.374090 5.698819
344 1 -0.067157 33.319041 29.788158 0.171526
345 2 0.047163 34.195795 31.061144 4.009587
346 1 0.011831 37.317622 27.153690 2.038848
347 1 -0.080887 34.224588 25.780381 3.468361
348 4 -0.488653 32.652049 27.506298 4.397101
349 1 -0.080086 34.433149 26.519276 5.815791
350 1 0.022376 36.562563 28.568639 3.867945
351 1 0.263830 33.196872 26.691514 3.264784
352 1 0.257555 32.958206 26.033194 0.931073
353 4 -0.580979 43.178846 25.226919 2.986115
354 1 0.259490 41.837553 25.057229 2.323588
355 1 0.012001 39.821550 31.203363 0.344511
356 1 -0.019787 43.345598 26.313693 6.171472
357 1 -0.030068 43.420639 28.770307 2.920499
358 1 0.025560 43.461845 29.445956 4.102828
359 2 0.044878 43.049953 27.777004 2.839872
360 4 -0.520936 39.827563 26.900574 4.938387
361 1 -0.008973 40.043436 28.772956 0.800693
362 4 -0.563629 40.921787 31.130001 4.165796
363 1 -0.069811 38.454726 26.794534 2.830734
364 1 -0.035137 40.205570 30.745662 1.725444
365 1 0.005729 37.883635 25.416595 0.457984
366 1 -0.018326 39.148459 25.173961 1.129590
367 1 -0.020600 43.170353 28.719562 5.406564
368 2 0.088250 43.481188 25.295554 5.721818
369 2 0.048798 42.199545 28.277521 5.273151
370 2 0.050287 40.470870 28.680242 2.925705
371 1 0.043814 39.438051 25.899568 2.347645
372 1 0.014183 40.282773 29.251782 1.978728
373 1 0.213063 41.119347 26.573468 4.123510
374 2 0.008231 41.521724 27.593099 3.897943
375 2 0.075074 37.744830 28.542577 5.610652
376 1 -0.078240 40.743303 25.683294 2.910958
377 1 0.265204 38.610933 27.271927 4.148802
378 2 0.022968 43.063750 28.263436 0.005208
379 2 0.039194 41.716397 26.028034 4.870363
380 1 -0.075065 37.652496 28.114556 4.628974
381 2 0.026247 47.649075 25.695337 5.496348
382 1 -0.012660 47.097533 30.573093 0.459535
383 1 -0.023132 49.315846 30.605201 1.770655
384 1 0.009961 46.439957 27.869477 0.676893
385 2 0.059947 47.001567 27.072944 1.204080
386 1 -0.005597 45.043373 27.635471 0.074822
387 1 0.008279 45.044431 30.997330 3.088154
388 2 0.017216 49.925219 30.269741 0.914257
389 1 -0.041738 45.518445 31.122994 0.508755
390 2 0.016079 47.412742 30.479200 5.635531
391 1 -0.016971 49.853581 30.599486 2.965614
392 1 -0.022384 47.476736 30.743627 3.231921
393 1 -0.017235 44.032598 28.446669 0.457892
394 2 0.053737 44.704825 27.155571 4.689007
395 1 -0.005977 48.805098 30.936235 4.046620
396 1 0.003653 44.029350 29.365220 1.687274
397 1 -0.000087 44.898732 30.478877 1.783950
398 2 0.018533 47.122422 29.706179 3.173381
399 1 -0.023000 47.851019 31.148877 1.775954
400 2 0.047576 48.905229 30.093923 4.819629
401 1 0.014379 46.857519 29.137960 0.690764
402 1 -0.019814 43.895981 30.951314 4.092263
403 1 -0.031610 44.219218 27.421486 5.614102
404 2 0.042592 49.516471 27.353679 5.888839
405 1 0.000726 51.696796 26.085142 4.402569
406 2 0.053746 52.230015 27.029109 4.198937
407 2 0.058912 50.904384 30.294118 3.260267
408 4 -0.541140 51.476672 30.500739 5.904107
409 1 0.002660 51.401233 25.407285 5.552409
410 4 -0.549656 18.441879 32.471082 5.973261
411 1 0.031332 18.610570 31.469063 1.988922
412 1 0.011162 18.610912 32.209254 0.960174
413 2 -0.048459 18.576099 32.155844 3.996525
414 2 0.032063 18.784613 32.826508 0.106194
415 1 0.625330 18.973479 31.911071 5.040452
416 4 -0.577134 24.390935 31.376622 0.863347
417 2 0.081965 19.600282 35.268167 6.137271
418 2 -0.002148 24.828820 33.012841 2.077461
419 1 0.249660 21.561946 33.556211 5.702550
420 4 -0.458265 22.650363 32.533178 5.547711
421 2 0.009748 21.047124 33.942781 4.794609
422 1 0.613554 25.101845 32.007204 1.630893
423 1 0.019784 30.973520 35.284581 3.065731
424 1 0.008013 30.942644 33.980909 3.631179
425 4 -0.396075 25.522568 37.356757 4.478094
426 1 0.006598 29.740214 33.184068 1.695916
427 1 -0.015878 28.442578 36.666011 4.090711
428 1 0.036301 28.312304 35.432149 4.800815
429 2 0.060203 27.174481 34.341411 3.282366
430 1 0.000164 27.750297 34.219129 4.207287
431 1 0.022361 30.453812 35.540094 1.784183
432 1 0.008751 30.813618 36.758071 1.187768
433 1 -0.002051 27.550020 33.094351 4.938048
434 1 -0.075839 30.285696 31.555936 3.411627
435 2 0.078602 27.030265 32.260855 4.443724
436 1 0.014359 29.742512 34.470625 1.071017
437 1 0.003625 28.310978 32.859616 6.158159
438 1 0.003795 29.032783 35.302563 6.013046
439 2 0.045594 29.338250 32.397321 1.098160
440 1 0.028462 30.308118 32.853222 2.922634
441 2 0.046923 27.906556 36.815955 3.084336
442 4 -0.596721 26.355086 31.505818 2.346984
443 2 0.031985 35.076299 36.043394 5.317623
444 4 -0.567099 37.375724 32.789513 5.101598
445 2 -0.050787 33.887472 32.031479 0.924818
446 1 0.005771 35.801671 37.483557 3.920051
447 1 0.594660 32.897328 32.565207 0.611511
448 1 -0.000048 35.908292 36.657517 5.037956
449 1 0.019676 37.137027 36.669314 5.702621
450 1 -0.067820 31.545805 32.213467 5.284221
451 1 0.017317 31.605289 33.596068 4.802124
452 1 0.004079 31.689538 36.250226 3.800890
453 1 -0.006239 32.885777 36.969354 5.783315
454 1 -0.002806 32.257742 35.925849 5.064415
455 4 -0.527274 32.713468 33.619819 1.199134
456 1 0.003809 32.321776 34.584587 5.547937
457 1 -0.006345 31.821532 37.565930 3.285257
458 1 0.000296 39.586010 32.625744 0.074706
459 2 0.083778 39.236114 35.162910 6.199923
460 1 0.643840 37.729724 33.927692 5.056216
461 2 0.331105 37.780333 34.106632 3.092851
462 4 -0.684832 38.072072 34.706322 3.762919
463 2 0.036776 40.103233 36.874538 5.745786
464 1 0.005858 39.052272 35.465169 0.280185
465 1 0.017615 38.167299 37.480052 5.282342
466 1 0.622715 41.119537 31.956664 5.445867
467 2 0.034547 40.438466 35.607859 1.890988
468 2 0.016215 42.148908 36.084614 0.288540
469 1 0.290887 40.667962 31.655738 2.743512
470 1 -0.027348 38.692997 36.832636 0.657758
471 2 0.113060 41.037333 33.711502 3.192927
472 2 0.020882 39.132826 37.247972 1.571898
473 1 -0.011301 40.029459 34.895084 1.154140
474 1 0.030631 40.165642 33.482289 1.156928
475 1 -0.071232 40.738810 32.968164 2.427218
476 4 -0.572461 41.004132 33.168503 5.551283
477 2 0.072513 43.006180 31.550277 3.784565
478 2 0.009021 43.727718 34.553510 1.139519
479 2 0.034209 49.615405 34.621799 5.966645
480 1 -0.009251 48.589007 35.031948 6.207809
481 1 0.355755 44.713196 35.123802 1.027741
482 1 -0.012337 49.118439 32.417643 4.735774
483 2 0.042080 48.465011 37.373008 1.013237
484 1 -0.026365 49.305488 37.377795 0.301052
485 2 0.036553 46.991163 36.594736 0.184935
486 2 0.036985 48.879194 34.661517 0.538472
487 1 0.001462 49.225198 37.499392 5.696026
488 2 0.058935 46.895003 34.365783 5.243761
489 2 0.037351 49.581575 34.298685 3.716318
490 1 -0.022011 46.250857 31.738671 3.557561
491 4 -0.699579 47.734765 36.563391 3.362468
492 4 -0.489794 45.661145 34.669776 1.682950
493 2 0.071904 46.446080 32.712907 3.147242
494 2 0.028621 43.993671 32.298193 5.690127
495 1 -0.011123 45.964382 31.993133 5.112360
496 2 0.030496 47.785425 32.231671 1.717109
497 2 0.027651 45.823648 33.103600 5.271475
498 2 0.347921 47.170304 36.428095 2.583427
499 1 -0.021242 47.489954 33.993632 6.123207
500 1 -0.004061 48.183227 32.552154 6.029636
501 1 -0.013040 47.005086 31.464844 6.055802
502 2 0.078726 45.584738 32.271654 0.654340
503 1 0.049368 48.303136 36.382423 6.082146
504 1 0.006580 48.816771 33.476333 3.744516
505 1 -0.015725 44.581418 31.429168 5.400122
506 1 -0.022384 55.144754 35.631854 5.774929
507 2 0.038488 55.156779 35.228037 4.797432
508 1 -0.004699 52.300188 34.399377 4.360203
509 2 0.067268 50.338035 37.357015 5.809852
510 1 -0.021369 51.134076 34.920948 0.560791
511 1 0.012802 50.727549 37.376787 1.100590
512 2 0.040491 56.240461 37.139075 3.814563
513 1 0.014590 55.747818 36.927804 5.947088
514 1 0.605741 52.033088 31.534847 6.194698
515 1 0.007742 50.714487 35.899804 1.611228
516 2 0.013661 50.873295 32.944774 1.717254
517 2 0.064764 51.843424 34.731991 5.339054
518 1 -0.005524 52.917172 33.764885 1.988697
519 2 0.051713 50.185442 35.567554 2.482689
520 2 0.034609 50.215542 32.469849 5.019459
521 2 0.039444 53.770392 33.185481 5.784395
522 1 0.026572 52.568313 34.103387 3.273502
523 2 -0.064653 52.311431 32.322862 5.387935
524 1 -0.023005 51.729471 33.389510 1.140834
525 2 0.051598 53.947643 34.090319 1.680229
526 4 -0.473721 52.706959 37.355183 3.262119
527 1 0.271619 1.571601 41.439795 5.388546
528 2 0.068668 1.976571 41.378269 3.244291
529 4 -0.501869 2.071455 42.820751 5.523933
530 2 0.034352 0.865322 39.271504 2.859207
531 1 0.030144 0.352128 38.927566 5.001505
532 1 -0.002959 0.922077 39.664023 3.907934
533 1 -0.062903 1.543617 40.861743 4.135036
534 2 0.044017 22.078633 38.477173 5.486074
535 1 -0.008002 22.474103 40.600552 5.587816
536 2 0.034312 21.988288 40.841508 4.655785
537 2 0.059316 22.720017 43.134278 5.011357
538 1 0.026765 23.128594 42.915092 5.992360
539 1 -0.005421 22.587007 39.318228 6.008958
540 1 0.004723 29.106741 37.751794 4.678658
541 2 -0.006629 25.890953 39.301005 4.957923
542 1 0.324243 25.844737 38.232799 5.321626
543 1 0.008414 29.658074 40.127629 4.829911
544 1 0.254130 29.915856 42.576584 4.890553
545 1 -0.034159 30.993102 39.307521 0.155199
546 2 0.026717 28.800037 39.325879 3.076724
547 2 0.083093 28.997222 41.615590 3.323984
548 1 -0.028172 29.177989 39.043843 4.086731
549 2 0.061469 26.996788 42.887368 5.976762
550 1 -0.002277 29.715299 37.600112 5.999514
551 1 -0.088127 29.509602 41.451393 4.292916
552 2 0.033684 26.513756 40.624563 5.818129
553 1 -0.061960 30.502828 42.478853 6.210810
554 1 -0.019322 30.200256 39.972103 6.131324
555 2 0.097194 31.291782 42.748568 0.161042
556 1 0.013450 31.519850 39.018255 1.463105
557 1 -0.083035 31.428289 41.695184 0.495098
558 1 0.004095 31.408785 37.759947 1.966777
559 1 0.028915 32.137205 41.423943 1.665001
560 1 0.290933 34.004312 43.051007 5.980432
561 2 0.036210 36.771440 38.835786 2.538647
562 1 -0.003651 36.904842 38.247347 3.490124
563 2 0.064069 32.478815 43.563940 2.122063
564 1 -0.009418 32.130524 40.053885 2.206606
565 1 0.011544 32.697422 39.835571 3.471961
566 1 -0.054106 33.257561 40.974338 4.190375
567 4 -0.511195 33.488149 43.378389 4.639094
568 4 -0.579900 36.954140 42.358599 6.183394
569 2 0.082321 37.514334 42.125224 1.634958
570 1 -0.011026 33.408910 39.372143 6.095869
571 2 0.041007 34.924845 37.587451 3.289991
572 1 -0.006418 32.569166 38.534753 3.971410
573 2 -0.044069 35.991565 40.872718 5.266922
574 1 -0.047481 32.621989 42.534338 2.420221
575 1 0.000026 32.951406 38.257371 5.291079
576 4 -0.559601 35.323688 41.869154 0.598210
577 1 0.041085 33.488246 40.663143 5.586975
578 1 0.263992 33.142831 42.241246 3.666106
579 1 -0.144468 37.110951 39.001812 0.296133
580 1 0.645045 36.987672 41.341372 5.507126
581 2 0.023821 40.708574 37.672194 2.692477
582 1 0.603084 43.556327 42.166131 4.454673
583 1 -0.013775 43.591091 43.762329 1.345853
584 1 0.253194 39.543821 39.797140 4.906208
585 1 -0.003836 40.415233 41.836359 5.573303
586 2 0.073315 39.589143 42.432445 5.151122
587 1 -0.017316 43.239232 42.531273 0.218188
588 2 0.053631 42.504850 39.836519 3.012341
589 1 -0.019179 38.899690 43.459708 2.884798
590 1 0.050090 38.130391 38.203240 4.138827
591 2 0.065479 41.183317 42.010934 2.982290
592 2 0.056457 38.417418 43.220845 3.894178
593 1 -0.043338 40.761924 38.567954 3.252766
594 1 -0.030027 40.693648 41.029950 3.169063
595 1 -0.038532 41.470913 39.764528 2.597898
596 2 0.031751 41.344733 38.417979 4.182328
597 2 0.072827 41.627038 40.202532 4.908033
598 2 0.048248 41.028986 38.946441 6.030591
599 1 -0.058845 39.913802 39.042969 6.121118
600 1 -0.017504 38.487747 42.723966 1.649085
601 2 0.032438 38.893912 39.575631 2.756615
602 2 0.017874 43.641163 41.577255 0.662453
603 2 0.035004 43.545275 38.401142 0.605865
604 2 0.005530 40.164284 40.063984 0.290741
605 4 -0.590373 42.348604 43.078366 4.571595
606 1 0.004728 39.328420 42.605280 0.525867
607 1 -0.005212 40.754780 42.998353 0.653216
608 1 -0.008942 39.355839 37.584390 6.190280
609 1 -0.041601 40.675092 40.678665 4.667499
610 4 -0.609992 38.210138 40.563617 5.162500
611 2 0.009768 41.433144 39.787668 1.467260
612 2 0.040938 37.723915 39.675447 0.827124
613 1 0.229794 41.622777 42.793564 5.879934
614 1 -0.053197 39.260974 39.024622 3.691689
615 2 0.032551 39.665278 41.085668 2.862858
616 4 -0.597846 43.799819 41.267916 5.245911
617 1 0.011554 48.675234 38.589790 5.310830
618 2 0.020921 45.329493 41.854862 0.419804
619 2 -0.058510 44.139356 42.246155 3.498336
620 2 0.033960 49.388959 39.403744 5.073125
621 2 0.047528 47.873779 39.484558 2.442196
622 2 0.016120 46.599556 43.708793 3.825176
623 1 -0.005508 47.289335 41.097290 3.995248
624 2 0.119165 45.444537 39.689865 4.566025
625 1 0.021400 46.560834 38.004913 6.175239
626 1 -0.018414 47.908686 42.159659 4.969202
627 2 0.030613 45.458853 43.668520 5.490533
628 4 -0.591714 45.927790 38.094456 3.083967
629 1 -0.002912 47.215814 42.981127 0.417608
630 1 -0.022709 49.602197 40.551690 3.082275
631 2 0.039718 49.024788 42.121236 5.015956
632 1 -0.016010 48.293371 40.320118 3.120103
633 2 0.027754 46.573014 41.622807 3.298340
634 1 -0.004154 48.444548 40.879907 0.429403
635 1 -0.006508 49.399079 39.849408 0.651655
636 1 -0.015929 47.430909 43.553644 4.576484
637 2 0.032407 46.715496 39.519573 0.275134
638 1 -0.088416 47.200091 38.615940 5.051942
639 2 0.040132 50.046785 41.366025 3.696191
640 1 0.606198 46.850560 37.705616 3.771562
641 2 0.026379 49.194704 42.655978 1.443516
642 1 -0.026566 48.401861 42.229993 0.832850
643 1 0.011519 46.510274 39.942784 4.849138
644 2 0.039978 45.060103 39.308312 0.331191
645 2 0.069131 49.754530 37.931104 3.030965
646 2 0.025630 44.216401 43.358525 2.238592
647 1 0.275892 54.424870 41.551746 5.573897
648 2 0.021763 54.802623 42.123874 4.689978
649 2 0.013342 52.026496 39.291656 3.861494
650 1 0.326656 51.917883 38.330587 3.227274
651 2 0.027923 51.353850 40.041566 1.554935
652 1 -0.069732 50.593211 38.273305 2.377457
653 1 -0.010819 50.338918 39.802907 1.886700
654 4 -0.502302 54.101900 40.144331 5.391975
655 4 -0.586803 51.776028 43.304151 5.706022
656 1 -0.003960 56.254900 37.602788 4.831909
657 2 0.366010 51.564910 41.090828 6.167920
658 2 0.126135 52.895286 37.705346 5.552283
659 2 0.026531 51.580770 37.665893 0.424497
660 2 0.072903 2.626292 45.363070 6.175522
661 4 -0.575240 23.105231 45.586240 4.795002
662 2 -0.006315 23.620422 45.385157 2.721344
663 2 0.048895 22.941780 48.081417 6.029525
664 1 0.615410 23.720044 44.805816 3.693964
665 2 0.080195 24.733992 47.996816 5.586755
666 4 -0.521476 24.619117 43.987300 3.807459
667 2 0.010912 26.310212 44.393050 5.581227
668 1 -0.041023 29.103097 49.905026 5.382414
669 1 0.296648 28.478796 49.101924 4.447283
670 4 -0.491862 29.306206 48.172933 3.650624
671 2 0.092329 26.632855 48.545845 3.393461
672 1 0.251676 30.215485 45.091159 5.126035
673 2 0.048317 30.107415 46.076496 4.722449
674 4 -0.485205 26.543670 46.358247 5.392015
675 1 -0.036137 27.111187 49.190845 4.156298