LAMMPS data file via write_data, version 19 Nov 2024, timestep = 3863510, units = real

12647 atoms
4 atom types

0 56.53285 xlo xhi
0 56.53285 ylo yhi
0 156.520934 zlo zhi

Masses

1 12.011
2 1.008
3 14.007
4 15.999

Atoms # charge/kk

1 2 0.04231417748305683 16.326838 0.429376 4.971128 0 0 0
2 2 -0.009088039564516417 15.622682 2.278757 6.121461 0 0 0
3 4 -0.6677940484536469 17.626739 3.296038 6.14429 0 0 0
4 1 -0.06467515644069519 17.075025 0.181759 5.781412 0 0 0
5 1 0.242905170230052 16.137179 3.255142 6.252395 0 0 0
6 4 -0.4240072114422489 17.539933 1.293003 0.810681 0 0 0
7 1 0.3424420055186059 17.57598 2.528513 0.979731 0 0 0
8 2 0.03148928244310736 17.019775 3.00612 1.845202 0 0 0
9 4 -0.4831866603010065 17.564625 5.276499 1.214327 0 0 0
10 2 0.05653906020874433 18.315529 2.237985 3.239042 0 0 0
11 1 0.2343803293600093 18.480948 4.710317 0.241067 0 0 0
12 2 0.06446300995044617 14.542163 5.733176 2.872932 0 0 0
13 1 -0.02621485657725373 18.409337 3.354538 0 0 0 0
14 4 -0.4835792710096929 25.022962 4.449689 6.219671 0 0 0
15 2 0.07033268766373887 18.91443 4.47392 4.241147 0 0 0
16 2 0.06555844829365212 19.010696 1.823029 4.835162 0 0 0
17 1 0.02052466461105495 24.180562 1.947524 6.19851 0 0 0
18 1 -0.070246204201331 20.486634 0.240948 3.60636 0 0 0
19 1 0.285380549560229 22.401805 1.1904 1.760566 0 0 0
20 2 0.1308946081967599 23.84309 2.438528 5.258893 0 0 0
21 2 0.08141018698004235 23.014773 2.596638 0.2169 0 0 0
22 1 -0.05889481886763194 20.704444 3.866629 5.145008 0 0 0
23 2 0.06643928673663112 20.18077 3.491221 6.043294 0 0 0
24 1 0.01912257996992899 24.148862 0.774181 0.191354 0 0 0
25 1 0.2588639416013671 20.35706 1.494351 3.149227 0 0 0
26 2 0.03511650074155685 20.850385 1.000448 6.139666 0 0 0
27 1 -0.07237828788298516 19.222657 2.297489 3.840634 0 0 0
28 2 -0.04466081197568886 21.245372 5.385142 2.237635 0 0 0
29 2 0.06301664746775906 20.226075 4.107361 2.956486 0 0 0
30 1 0.5828995191254559 22.212077 5.485021 2.850606 0 0 0
31 1 -0.003480920278322523 19.722152 3.812664 3.936421 0 0 0
32 2 0.07415990922151923 21.500997 3.178942 4.804423 0 0 0
33 2 0.1196920138579589 20.975365 4.914487 5.340104 0 0 0
34 1 -0.04620191942426979 23.175953 1.607522 0.683491 0 0 0
35 4 -0.4598308259807262 23.219108 4.829013 2.570031 0 0 0
36 4 -0.4976115189621864 21.31349 2.129348 2.195268 0 0 0
37 2 0.05894969321800315 24.943746 6.139237 4.791487 0 0 0
38 1 0.2926336629820192 25.267141 5.823595 5.805357 0 0 0
39 4 -0.5312931487801891 31.334959 1.376516 6.059957 0 0 0
40 1 0.008710519321923618 28.24946 3.567038 5.932256 0 0 0
41 1 0.6276686021106036 29.524909 0.34458 4.051208 0 0 0
42 4 -0.5286710105342333 25.762453 1.293648 3.230303 0 0 0
43 2 -0.03226529742360722 28.530746 0.655891 3.555427 0 0 0
44 2 -0.02119095304210894 26.150346 2.279743 1.587119 0 0 0
45 1 -0.05832079987717921 27.666921 1.556535 5.647372 0 0 0
46 4 -0.4270654626530818 28.46362 3.964774 0.97318 0 0 0
47 1 0.3823412016265827 29.911667 1.840412 1.402352 0 0 0
48 2 0.02129355534769057 28.163579 5.59251 2.279091 0 0 0
49 4 -0.6433637554678677 27.248146 3.336545 3.320757 0 0 0
50 2 0.3274594289265765 28.089765 3.33459 2.786543 0 0 0
51 4 -0.5253037317453442 30.314401 5.22478 2.151253 0 0 0
52 2 0.04385196866163878 29.506422 2.384653 2.339168 0 0 0
53 4 -0.5665387669020429 30.735099 1.202854 3.679894 0 0 0
54 2 0.1058676865910239 27.142755 0.756302 5.127064 0 0 0
55 1 0.6204991365530753 26.38683 2.146963 2.654883 0 0 0
56 1 0.4161607829994287 28.904363 5.306054 1.451961 0 0 0
57 1 0.2307364912446387 27.731215 2.794294 5.007795 0 0 0
58 4 -0.4493801039885298 29.045352 1.307202 0.715418 0 0 0
59 2 0.07329688739961746 25.882016 5.477594 0.378176 0 0 0
60 2 0.1220174778134014 26.7751 2.95187 0.202534 0 0 0
61 1 0.05657226981418356 31.393086 1.878062 0.993128 0 0 0
62 2 0.09464307915124145 35.290264 0.028457 4.685399 0 0 0
63 2 0.006332221675466556 35.604726 0.323283 2.824996 0 0 0
64 2 0.03052235752254724 31.765457 4.392862 3.991632 0 0 0
65 1 0.3349906353359049 32.001745 1.91106 3.384514 0 0 0
66 1 -0.0685950872688051 32.307314 2.073372 2.074761 0 0 0
67 1 0.509540542111755 32.267121 5.429655 4.207943 0 0 0
68 1 -0.0006847105109688895 36.860837 5.051541 5.78754 0 0 0
69 1 0.03046898988514751 35.004372 3.499333 5.079798 0 0 0
70 1 0.3405127581167147 32.597326 2.041491 5.715912 0 0 0
71 4 -0.553950380214366 33.770779 5.393641 4.004725 0 0 0
72 1 0.2589053907995593 34.036141 5.761577 2.59692 0 0 0
73 1 -0.1215851126405202 32.924563 2.224435 4.406631 0 0 0
74 1 0.04420468975422708 34.217586 2.870561 4.110245 0 0 0
75 1 0.005910014841263445 33.714578 2.570663 1.68082 0 0 0
76 1 -0.01037824084854425 34.63891 2.835898 2.759095 0 0 0
77 1 0.02097016983264572 36.208958 4.180377 4.814585 0 0 0
78 1 -0.007439610327921819 35.981678 3.468473 2.409097 0 0 0
79 1 0.01290698422844342 36.592219 4.363349 3.456378 0 0 0
80 1 -0.007859926430101558 36.49524 3.670107 1.123052 0 0 0
81 1 0.03700491892238212 33.812526 2.660213 0.324513 0 0 0
82 4 -0.6429164771500251 31.933408 5.726351 5.62259 0 0 0
83 1 0.007119878286220126 37.542857 4.410543 0.624128 0 0 0
84 2 0.3607173779943005 32.765008 6.010786 5.992761 0 0 0
85 1 0.01784974802632037 33.955388 6.168483 0.320513 0 0 0
86 1 0.01521603666610683 39.949159 5.957236 0.089944 0 0 0
87 1 -0.001971525882017113 37.702441 5.204344 3.046793 0 0 0
88 1 0.00589961734704698 37.884119 5.947789 5.339027 0 0 0
89 1 2.75175373208754e-05 38.236891 5.15432 1.709461 0 0 0
90 1 0.001031064418627184 38.41384 5.95541 4.048603 0 0 0
91 1 0.003256599500475126 39.391981 5.94043 1.422197 0 0 0
92 2 0.03229881220410716 12.541074 12.523109 0.136168 0 0 0
93 1 -0.005382046129079899 13.584315 12.169859 0.002867 0 0 0
94 2 0.03014457655674913 12.77666 11.935072 2.628651 0 0 0
95 1 0.01322169699861105 17.983564 8.058453 3.73003 0 0 0
96 4 -0.5251481528281643 15.614694 9.533482 5.440628 0 0 0
97 1 0.2885612571711039 16.065993 9.211233 4.087171 0 0 0
98 1 0.01150356390480479 18.605474 7.207302 2.705089 0 0 0
99 2 0.05359579513937756 18.608475 10.539043 1.40807 0 0 0
100 2 0.07745507974257568 18.064572 10.572515 5.108052 0 0 0
101 1 0.2136250175520327 15.79144 6.963716 3.89857 0 0 0
102 1 0.06797874733465481 15.970989 9.74229 1.587251 0 0 0
103 4 -0.4605118661018324 15.276709 6.577831 5.253477 0 0 0
104 4 -0.4540595333260193 15.44 7.271693 1.567418 0 0 0
105 1 0.02047745036524558 18.151438 9.912684 0.550036 0 0 0
106 1 0.2207540907327959 16.835289 7.693688 1.105356 0 0 0
107 1 -0.07641988571006762 17.037031 8.991831 1.001824 0 0 0
108 1 -0.04903114730155392 15.512151 9.841676 2.952591 0 0 0
109 1 -0.02137451973194415 13.629311 11.254951 2.312173 0 0 0
110 2 0.05593159992509674 17.139719 7.200928 5.887499 0 0 0
111 1 0.02700503518947171 18.497734 9.717068 5.587654 0 0 0
112 1 -0.113543219353535 16.603761 8.05175 3.833673 0 0 0
113 1 0.1512023615636209 17.997048 6.761546 1.22599 0 0 0
114 1 0.0266337770812617 14.342892 10.621966 3.260427 0 0 0
115 1 0.004797799157558969 15.409223 10.74329 0.788158 0 0 0
116 2 0.07493318218502268 13.902303 10.636649 4.243443 0 0 0
117 1 0.01196249270349035 14.148205 11.385423 1.011015 0 0 0
118 1 0.2170717309377457 15.338255 6.471746 2.805309 0 0 0
119 4 -0.5248139515016267 22.117301 6.3875 4.032374 0 0 0
120 1 0.5356267945965144 22.12357 10.171524 3.159433 0 0 0
121 2 0.08670151849594282 20.933228 8.60255 5.799232 0 0 0
122 1 0.2772728197419523 23.95249 12.301733 5.152266 0 0 0
123 4 -0.5072027133774143 22.119922 10.695257 4.486379 0 0 0
124 1 -0.01808541157786355 20.319783 8.164636 4.948389 0 0 0
125 2 0.003141756783947181 23.049856 9.935029 2.588977 0 0 0
126 2 0.09464426261173281 22.973851 8.472105 5.554753 0 0 0
127 2 0.02008274635332475 24.279691 10.221073 4.520361 0 0 0
128 2 0.3215712171249486 20.278392 10.585918 2.908937 0 0 0
129 1 -0.009612637978331635 19.095338 6.848373 0.17761 0 0 0
130 1 0.2471552546730849 20.72424 7.134248 4.07964 0 0 0
131 1 0.0180318764148474 18.928899 8.551398 4.808415 0 0 0
132 4 -0.6679863220337201 20.908989 10.182401 2.326033 0 0 0
133 1 -0.04948691572269856 19.753142 7.0184 3.18629 0 0 0
134 1 0.1231897534846502 23.622985 10.898926 5.155412 0 0 0
135 1 0.2047007238661635 28.492967 12.262177 6.24341 0 0 0
137 1 -0.0311149273128219 26.081885 8.011491 6.094061 0 0 0
138 1 0.03248053434155119 29.125339 6.691268 6.066832 0 0 0
139 1 0.234342658841569 30.122036 8.680528 6.077786 0 0 0
140 2 0.3775051854730189 31.002171 10.414384 6.049889 0 0 0
141 4 -0.6148244749368925 30.468322 10.000429 5.437534 0 0 0
142 2 -0.0059358136351775 25.963809 9.776864 4.31596 0 0 0
143 1 -0.07634987899623182 30.489988 7.701398 1.572891 0 0 0
144 1 -0.03291977811772571 29.216736 7.690279 5.283477 0 0 0
145 2 0.01367682163617354 25.821245 8.22898 5.042034 0 0 0
146 1 0.3066865285847218 26.724994 10.416612 4.865254 0 0 0
147 2 0.05505533936345762 28.833348 7.824293 4.304449 0 0 0
148 4 -0.4600703455766135 27.079062 11.429993 4.249209 0 0 0
149 1 0.02227759633113796 30.922137 10.047366 0.933539 0 0 0
150 2 0.084434240258382 29.799212 11.823723 3.303657 0 0 0
151 2 0.1087638132682151 29.213134 12.04835 5.415795 0 0 0
152 1 0.04120833670463789 29.510907 7.618454 0.555609 0 0 0
153 1 0.2671723154305325 30.881808 6.56561 2.363493 0 0 0
154 1 -0.04429484608557452 28.731702 6.442265 0.433731 0 0 0
155 1 0.03123419750134409 31.206629 8.909013 1.756153 0 0 0
156 1 0.04138032342064654 31.416306 12.451552 0.337682 0 0 0
157 1 -0.01176873958766408 35.490891 11.648648 5.222283 0 0 0
158 1 0.07652152629622729 32.743777 10.297527 3.075649 0 0 0
159 1 0.01876030221904041 36.304812 7.887513 2.891012 0 0 0
160 1 -0.002661155999393442 36.117652 10.398779 1.38044 0 0 0
161 1 0.02150769153298652 35.510962 7.784179 1.853468 0 0 0
162 1 0.2721725901282399 33.954737 9.342851 4.99759 0 0 0
163 1 0.001659858005255964 34.495466 9.143445 0.000551 0 0 0
164 1 -0.07046739548108311 32.12559 9.021484 2.806067 0 0 0
165 1 -0.0005063122959827209 37.076244 8.538383 3.667387 0 0 0
166 1 -0.08257862513528398 34.841002 9.478846 6.016831 0 0 0
167 1 0.01398456094812338 34.38504 11.613543 4.312693 0 0 0
168 1 -0.01311681894261169 32.568968 11.375141 2.196098 0 0 0
169 1 0.3205619281501721 32.351122 7.92607 3.653023 0 0 0
170 1 -0.0008933006600763812 37.003014 10.826545 2.445106 0 0 0
171 1 0.006181745197566017 37.450266 9.810365 3.682992 0 0 0
172 1 -0.006448468601697844 35.40009 9.073196 1.14916 0 0 0
173 4 -0.4905888200579108 33.259513 8.025515 4.826382 0 0 0
174 1 -0.05707788034404852 33.734393 10.373162 4.064778 0 0 0
175 1 -0.07878494360223154 34.658396 6.451138 1.604976 0 0 0
176 1 -0.001557651394244419 31.658202 11.289149 1.105274 0 0 0
177 1 -0.14100558977094 31.790162 6.703421 3.353382 0 0 0
178 1 0.002656669681643347 35.60107 10.612344 6.174229 0 0 0
179 1 0.007969746417034939 35.686458 11.291051 0.297098 0 0 0
180 1 0.01988199779490436 37.70636 11.975023 2.442388 0 0 0
181 1 0.003315131328566467 38.2858 10.190747 4.708725 0 0 0
182 1 0.02030082567696457 39.660749 7.421659 6.110588 0 0 0
183 1 0.06224520805284677 39.047358 10.724065 5.564633 0 0 0
184 1 0.5946722907963916 42.045342 12.034627 3.834587 0 0 0
185 1 -0.03213645108775948 41.960299 8.016777 3.278334 0 0 0
186 2 0.1079934159129735 42.886986 9.498047 5.460337 0 0 0
187 1 0.01157883345454215 41.972306 9.002882 5.611484 0 0 0
188 4 -0.5579550195536214 41.42436 11.03199 3.515777 0 0 0
189 1 -0.001872757999263314 40.112391 6.695115 2.480549 0 0 0
190 1 0.004026361293837885 39.562515 6.721543 3.766889 0 0 0
191 1 0.04192192630592804 41.444763 8.187385 4.567681 0 0 0
192 1 0.3464594821671825 43.272405 8.727596 3.124408 0 0 0
193 1 0.01159921449770699 40.279557 7.41787 4.808488 0 0 0
194 2 0.1044675159151664 42.709828 7.830052 0.476473 0 0 0
195 1 0.04543572110572786 41.384985 7.335072 2.210898 0 0 0
196 1 -9.516069325953541e-05 41.810703 7.336713 0.838631 0 0 0
197 2 0.03603156797816696 43.689611 9.437765 3.904725 0 0 0
198 4 -0.4342771976448641 43.933546 8.608882 2.065465 0 0 0
199 4 -0.4474838860376973 23.894234 13.027703 3.889338 0 0 0
200 1 -0.06611879382337717 24.697607 12.83489 6.142554 0 0 0
201 1 0.2899309114794918 24.672411 14.317645 3.755573 0 0 0
202 2 0.09166473709473057 24.519549 14.894988 2.817786 0 0 0
203 1 0.1760972986579946 30.006639 12.864266 3.204601 0 0 0
204 4 -0.5226871461764891 27.153374 17.876501 1.478782 0 0 0
205 2 0.06231603558789221 27.69747 12.914057 5.775789 0 0 0
206 1 0.2471732862215175 29.395152 14.978125 1.962764 0 0 0
207 1 0.6279983917132568 27.005182 17.531172 2.641029 0 0 0
208 2 0.04948497643445065 29.900777 17.415101 1.650463 0 0 0
209 4 -0.4802832532789353 27.411333 18.058024 5.337648 0 0 0
210 1 0.05788197267691803 25.385876 14.021327 6.048962 0 0 0
211 2 0.02401737531850133 27.773582 17.804824 3.416152 0 0 0
212 1 0.1642266698156954 26.721695 16.652114 5.538018 0 0 0
213 2 0.01784470150481974 28.842677 15.562286 1.273405 0 0 0
214 4 -0.449598114160541 29.156226 13.569006 2.130616 0 0 0
215 4 -0.5271227346722576 26.048661 16.465872 3.059099 0 0 0
216 1 -0.02660489715253454 30.476659 16.932306 2.436966 0 0 0
217 1 -0.08494449929999952 25.377875 14.78292 4.797413 0 0 0
218 1 0.1910935084790416 30.828882 13.509349 4.045114 0 0 0
219 1 -0.04299360369074402 30.339253 15.590501 2.802 0 0 0
220 2 0.1177494136282195 26.731946 15.644064 0.149259 0 0 0
221 1 -0.01495026601880594 31.063746 14.931288 3.831557 0 0 0
222 1 0.2163813365838123 26.090206 16.054026 4.521127 0 0 0
223 1 0.01219181811338729 31.395487 17.622101 3.264639 0 0 0
224 2 0.06713566708382442 36.89927 12.953553 6.156868 0 0 0
225 1 0.01276575973784006 33.659085 17.164939 6.204869 0 0 0
226 1 0.2549038391831371 36.538441 18.803423 3.542533 0 0 0
227 4 -0.4706140699557067 31.563327 12.85303 5.225168 0 0 0
228 1 0.01625389570457638 33.624234 18.563285 0.554866 0 0 0
229 1 -0.06920311027679346 36.234716 12.851596 5.291979 0 0 0
230 1 -0.08337855464016018 35.31761 16.325775 3.10542 0 0 0
231 2 -0.01975698327046057 35.304964 16.807909 5.281864 0 0 0
232 1 -0.01704681980352722 33.91797 17.361483 1.283734 0 0 0
233 1 0.2448833433027365 35.937336 13.973312 4.586853 0 0 0
234 4 -0.5139379122429908 36.702479 15.254913 4.903836 0 0 0
235 1 0.04178216012980173 34.9504 17.372732 2.294432 0 0 0
236 1 0.002590076700425488 33.272097 12.617671 2.396101 0 0 0
237 1 -0.07959114111820292 34.992251 13.933394 3.609222 0 0 0
238 1 0.2654854979833823 32.473947 13.709954 6.085851 0 0 0
239 2 0.06606182559482361 37.500637 17.602918 0.773573 0 0 0
240 1 0.01535650218379019 34.176872 12.726637 3.432339 0 0 0
241 1 -0.0168287359796189 33.728535 15.003393 1.775461 0 0 0
242 4 -0.5222423665634476 36.994673 17.679437 4.442061 0 0 0
243 1 0.06447095414220975 31.882635 15.673916 4.68396 0 0 0
244 1 -0.005020123225100588 33.02968 13.782644 1.626205 0 0 0
245 1 -0.006619688805892869 33.351682 16.111892 1.021294 0 0 0
246 1 0.006857969344786989 32.081708 17.001241 4.379818 0 0 0
247 1 0.03180380240553397 34.691738 15.085323 2.839208 0 0 0
248 1 0.4601961818446543 36.041423 16.533851 4.460461 0 0 0
249 1 0.0007564789563922595 32.081026 13.705412 0.597408 0 0 0
250 1 -0.05062183540174214 32.634767 15.05135 5.721626 0 0 0
251 1 0.04178907101425874 32.829116 17.811443 5.22325 0 0 0
252 1 -0.06926437070512141 35.507974 18.614953 2.591145 0 0 0
253 1 -0.03561197722801734 41.250513 18.297344 1.689048 0 0 0
254 1 -0.006995604160871151 40.403761 16.025574 1.575224 0 0 0
255 2 0.04024756810169829 43.768126 15.894582 0.304856 0 0 0
256 1 0.03390315027389018 40.063573 17.284333 5.016671 0 0 0
257 1 0.01960783902117251 38.364168 13.138213 2.283351 0 0 0
258 1 0.01349806906434982 38.273547 13.60562 0.854963 0 0 0
259 2 0.03409016962667955 43.460988 13.942391 2.971206 0 0 0
260 4 -0.4825516092920835 43.903245 15.965521 3.807134 0 0 0
261 2 0.04124966265362993 41.887063 18.788377 0.93622 0 0 0
262 1 0.2326440273780415 42.930476 14.023562 5.056194 0 0 0
263 1 -0.03200992167502891 41.697259 16.863141 2.009691 0 0 0
264 1 0.04747013906071429 39.491145 14.850798 4.008531 0 0 0
265 1 0.0762418440201921 39.646002 15.815557 4.583972 0 0 0
266 2 0.03931397089869233 42.57581 16.558384 1.372819 0 0 0
267 1 0.195808897114945 43.729066 16.792037 5.012667 0 0 0
268 1 0.1811149165385659 43.267225 16.26982 6.202731 0 0 0
269 2 0.06158877678464762 40.159175 18.21355 1.321854 0 0 0
270 1 0.02651233326247061 39.512298 13.89451 2.925795 0 0 0
271 1 -0.002406147145501361 39.997989 14.513288 1.723814 0 0 0
272 1 0.1245383426066259 43.395716 14.478367 3.928305 0 0 0
273 1 0.01406462465040096 39.610298 16.09326 0.372909 0 0 0
274 1 0.006530518307517804 39.324094 14.485716 0.469564 0 0 0
275 2 -0.04885912723494554 42.246779 12.785134 3.011034 0 0 0
276 2 0.05224158730544635 41.794644 16.673823 3.097974 0 0 0
277 4 -0.4994421307559235 42.206654 12.705119 5.192405 0 0 0
278 1 -0.003192249982981702 40.65111 18.132706 4.110058 0 0 0
279 2 0.03295936332734635 44.069778 17.87566 4.997731 0 0 0
280 1 0.1649517063836332 17.949244 25.01408 0.589647 0 0 0
281 2 -0.00147356427273214 16.751796 24.884716 2.979151 0 0 0
282 2 0.04635779774659225 23.396161 23.948259 2.208873 0 0 0
283 1 0.1031331351891299 22.551068 23.207539 0.348212 0 0 0
284 2 0.03177219341599629 23.697812 23.640287 5.319654 0 0 0
285 1 -0.05735063459931597 24.263309 24.095961 6.081874 0 0 0
286 4 -0.3203708930426162 25.016647 23.001513 0.486358 0 0 0
287 4 -0.3804295475015616 24.526833 19.953174 1.735213 0 0 0
288 2 0.03869846883900678 21.355157 24.91176 3.004334 0 0 0
289 1 0.2115801126197069 18.98588 25.100271 1.471431 0 0 0
290 2 0.04456331964465358 24.699279 25.00902 1.766707 0 0 0
291 1 0.006311443748207182 21.33946 24.498302 2.007266 0 0 0
292 1 -0.04197608332925212 20.185658 24.492281 1.168395 0 0 0
293 1 -0.0359845667812824 22.502848 23.903805 1.575886 0 0 0
294 2 0.09947444473366172 27.067067 23.744501 0.099379 0 0 0
295 2 0.07907640957528407 25.231178 23.345902 3.8992 0 0 0
296 2 0.02726007852420274 28.388073 24.139108 6.048018 0 0 0
297 2 0.09927506239391823 26.818278 23.358263 2.144999 0 0 0
298 2 0.03831133541179729 28.340874 24.074366 2.827635 0 0 0
299 4 -0.4802534873213221 29.844838 22.172266 0.905609 0 0 0
300 1 0.5656512531811612 30.433351 21.809728 1.920689 0 0 0
301 2 0.06851997215908663 26.86072 23.683135 4.772744 0 0 0
302 1 -0.05871069473730695 27.417204 24.295971 2.314977 0 0 0
303 2 -0.01951765833907126 29.942285 21.538282 2.872833 0 0 0
304 4 -0.5498259557420083 26.752615 21.49749 4.258837 0 0 0
305 2 0.06899399409601521 26.485655 20.442301 2.00464 0 0 0
306 2 0.08159378671975513 29.406652 22.742428 4.047647 0 0 0
307 1 -0.03241834642941406 25.979909 24.125796 4.246606 0 0 0
308 4 -0.5122449730537072 28.796526 20.683415 5.177488 0 0 0
309 1 0.6173752277843585 27.327613 20.714467 5.034051 0 0 0
310 2 -0.0218734187921003 26.777036 20.079482 5.738715 0 0 0
311 1 -0.0194013107116515 29.225447 24.510523 5.434171 0 0 0
312 2 0.07028977936564622 30.980135 19.389345 1.99061 0 0 0
313 2 0.02769428650309796 27.636541 24.847518 1.376702 0 0 0
314 1 0.4246425596966806 25.597655 20.361161 1.317104 0 0 0
315 1 -0.07519501143219325 30.068625 23.438369 4.660103 0 0 0
316 2 0.01661978822125488 30.737833 23.980491 4.000266 0 0 0
317 2 0.0919423768924668 30.614503 22.869676 5.401767 0 0 0
318 2 0.02002513125345284 31.207451 21.76266 3.905827 0 0 0
319 1 -0.03335003437137386 25.266764 25.047207 5.330454 0 0 0
320 1 0.00313567050165278 31.462568 18.96638 2.883851 0 0 0
321 2 0.1140131378655433 34.03948 20.622659 0.212704 0 0 0
322 1 0.222682419358154 36.515697 24.315438 6.219908 0 0 0
323 2 0.07563581010728818 35.404913 24.876002 3.841368 0 0 0
324 1 0.002052182380035171 35.087144 22.193409 6.077639 0 0 0
325 1 0.01685086592781187 32.835981 19.185431 4.894385 0 0 0
326 1 0.1997007789053569 32.206232 21.297318 3.470881 0 0 0
327 1 0.009512714458230449 34.045534 23.170603 3.579872 0 0 0
328 4 -0.4667809259161736 35.640611 22.055761 0.943366 0 0 0
329 4 -0.5360169847019134 31.941091 21.576232 1.988866 0 0 0
330 1 0.03143196604474988 34.293501 19.71042 0.83513 0 0 0
331 1 0.002575869015401179 33.837945 20.033186 5.60194 0 0 0
332 1 -0.02280227854875477 35.475571 23.545954 5.571354 0 0 0
333 1 0.005925015727202875 34.065108 21.452744 5.283937 0 0 0
334 1 -0.01546023868301033 33.478927 21.99774 4.09942 0 0 0
335 1 0.1933426959490634 36.013965 20.909785 1.821185 0 0 0
336 1 0.01817745675584257 34.977574 23.964644 4.321934 0 0 0
337 2 0.08664100497173312 32.580898 23.730851 1.393179 0 0 0
338 1 -0.008302791511315124 32.823539 24.72273 0.851255 0 0 0
339 1 -0.02144440848113767 35.276105 19.715073 1.791995 0 0 0
340 1 0.2312815737210387 36.930921 21.070609 2.81498 0 0 0
341 2 0.04410633280182379 33.63188 23.607141 2.651519 0 0 0
342 1 -0.001035905323127436 32.200375 19.753875 3.740593 0 0 0
343 1 -0.1297079548540928 37.23067 19.964791 3.553797 0 0 0
344 1 0.264881799226705 36.924477 22.680358 0.437876 0 0 0
345 2 0.03893623457433969 31.829518 25.069429 0.596234 0 0 0
346 1 -0.01430128799002279 41.289476 19.029482 3.152267 0 0 0
347 2 0.02052534389824704 42.335492 19.239971 3.485832 0 0 0
348 2 0.07444725038984976 37.876817 22.19058 0.786062 0 0 0
349 1 0.04541803847319086 41.9854 22.195451 5.394151 0 0 0
350 1 -0.03189780650882289 40.35009 20.395669 3.094095 0 0 0
351 2 0.086380898205747 39.44672 20.392602 2.434889 0 0 0
352 4 -0.2943557565832022 38.761135 19.936088 0.068406 0 0 0
353 4 -0.5570159185375362 37.749885 22.374885 2.990841 0 0 0
354 4 -0.5896963232078016 38.515093 21.77604 5.199141 0 0 0
355 1 0.60690545483834 38.329412 22.645195 4.350198 0 0 0
356 2 0.0223741580863686 38.705281 23.722728 4.417777 0 0 0
357 1 0.01340773303463824 41.790054 21.993041 4.321046 0 0 0
358 1 -0.0284829963750182 41.347071 21.51852 2.865957 0 0 0
359 2 0.02568246708304546 42.243053 21.16483 2.341517 0 0 0
360 2 0.05714579997464932 40.933934 22.414552 2.320731 0 0 0
361 2 0.1420062365686545 37.918736 19.948949 4.388673 0 0 0
362 2 0.07564447974910085 40.05617 20.422889 4.143154 0 0 0
363 1 0.3694010591941259 4.373361 31.339035 0.492201 0 0 0
364 1 0.1994091506268856 11.475702 31.352817 0.294593 0 0 0
365 1 -0.04161957189320453 12.468467 28.536004 4.290542 0 0 0
366 2 -0.0004071425347819822 12.33042 30.742442 2.577629 0 0 0
367 2 0.05473212025092062 11.835797 27.69536 3.965908 0 0 0
368 1 0.1531492306499805 7.169073 31.10197 3.179202 0 0 0
369 4 -0.4922116187906896 6.454864 31.03678 1.82241 0 0 0
370 2 0.03040292320871196 10.933213 28.687345 5.900286 0 0 0
371 2 0.08346303116628202 11.110131 30.227803 4.930932 0 0 0
372 2 0.09754116786634164 7.142792 30.125119 3.660925 0 0 0
373 4 -0.5824811781753114 7.698708 30.869901 5.717448 0 0 0
374 1 -0.03276741206262319 11.659088 29.358817 5.382735 0 0 0
375 4 -0.4758452253104005 11.061538 28.589969 0.927793 0 0 0
376 1 0.3753073599756857 12.057804 27.951368 0.655428 0 0 0
377 1 0.2044323277399268 7.195258 30.875518 0.486755 0 0 0
378 1 -0.04001009162510503 8.523904 31.04932 0.48783 0 0 0
379 2 0.04087288990984943 16.042831 31.319301 4.170413 0 0 0
380 1 -2.273663369903484e-05 18.402184 29.202356 4.667535 0 0 0
381 1 0.6247524058734503 17.514557 25.600343 3.432192 0 0 0
382 4 -0.4459667766059985 16.13937 30.788692 6.198038 0 0 0
383 2 0.05231646950777834 13.377591 28.189028 4.825384 0 0 0
384 1 0.006331664990362144 17.347397 30.249757 0.691754 0 0 0
385 3 -0.5562361418536538 16.655054 29.038283 2.983507 0 0 0
386 2 0.2375002842794351 17.141394 28.171189 2.831789 0 0 0
387 1 0.02187564489681481 18.011384 31.270812 0.011631 0 0 0
388 1 0.2155836646414175 18.791068 30.63372 2.631674 0 0 0
389 1 0.0506305671787996 17.35504 30.508881 2.123763 0 0 0
390 2 0.01518182398508943 12.953655 27.983643 1.338189 0 0 0
391 4 -0.5381104823157421 17.191932 26.18839 4.486118 0 0 0
392 2 0.09886420464034885 13.480679 30.459852 5.867413 0 0 0
393 2 0.09187838575701805 18.659161 29.177316 5.778036 0 0 0
394 2 0.05436304753369377 12.803827 29.128778 3.349338 0 0 0
395 4 -0.2024932729898925 14.403566 26.492878 0.188258 0 0 0
396 2 0.02587996203995722 16.752572 31.359007 2.408288 0 0 0
397 2 0.06652204948582729 16.756316 29.553674 0.140199 0 0 0
398 1 0.09572510344002261 16.804848 29.179428 4.475215 0 0 0
399 1 -0.07285711460542559 18.741729 30.522918 4.050989 0 0 0
400 2 0.2067508273593109 15.667765 29.26782 2.695435 0 0 0
401 1 0.3237322600087549 16.224053 30.524361 4.988428 0 0 0
402 2 0.100474060368369 16.373378 28.26972 4.995399 0 0 0
403 4 -0.2928991835784455 16.749805 25.886619 0.789092 0 0 0
404 2 0.04386473144666168 24.699664 30.475295 4.05376 0 0 0
405 2 0.07255915395905242 24.704014 25.761991 4.665683 0 0 0
406 1 -0.04596076785321084 22.724525 27.296674 2.836795 0 0 0
407 2 0.0215993503197175 21.336004 26.321946 0.402328 0 0 0
408 1 -0.0474787578580957 22.100156 29.096706 4.339148 0 0 0
409 1 -0.03299685211898962 21.756705 26.563636 5.004548 0 0 0
410 2 0.01279150276722523 22.804448 26.208996 2.559976 0 0 0
411 2 0.05515298222351808 23.165573 29.167977 4.274126 0 0 0
412 2 0.02714860080872528 23.597026 26.660777 0.075066 0 0 0
413 2 0.0751009790933103 20.287193 27.37866 1.46274 0 0 0
414 2 0.01727045030937669 24.218457 30.252117 1.757246 0 0 0
415 2 0.05034387923653197 20.599591 27.68199 3.436818 0 0 0
416 2 0.04465100699279062 24.71416 26.257941 3.058089 0 0 0
417 2 0.032952862656974 25.066125 28.507962 2.057417 0 0 0
418 1 -0.03698404929405925 24.339151 31.396622 3.629278 0 0 0
419 2 0.04555455316864484 18.85527 28.372394 4.128435 0 0 0
420 1 -0.05488875772811377 22.27507 30.790677 6.10679 0 0 0
421 2 0.2946305358479278 19.26593 28.670462 2.356486 0 0 0
422 2 0.02184732224170166 21.938151 25.555451 4.622746 0 0 0
423 1 -0.001884037994973632 21.589607 27.647043 3.880703 0 0 0
424 2 0.03929228157944517 22.454164 26.877028 5.763252 0 0 0
425 1 -0.01144192123476682 23.627081 27.703473 0.426898 0 0 0
426 1 -0.01961296591599461 25.110244 28.035974 1.045814 0 0 0
427 2 0.06745024874015969 23.399703 30.73316 6.178808 0 0 0
428 1 -0.06892725479124523 20.375383 26.564491 5.739264 0 0 0
429 2 0.05024153525691694 21.497198 29.86242 3.746416 0 0 0
430 4 -0.5959019008786955 18.846153 25.759412 2.82451 0 0 0
431 1 -0.001799605986574509 21.186878 27.341886 0.795761 0 0 0
432 2 0.04582275129794012 20.532221 29.397434 5.918961 0 0 0
433 4 -0.6307002362960202 19.739884 29.435185 2.087955 0 0 0
434 1 -0.02026671670063137 21.606531 29.361563 5.795912 0 0 0
435 2 0.0667812837876932 23.66726 27.75784 3.266864 0 0 0
436 1 -0.01375616788195808 22.463716 28.046363 1.430037 0 0 0
437 2 0.1078417281270848 19.535431 26.47017 5.034261 0 0 0
438 1 -0.02674787157482624 24.308477 31.311432 2.041725 0 0 0
439 2 0.05161500687905651 22.269181 29.073261 1.639907 0 0 0
440 2 0.04386050451257471 28.838563 25.271647 4.656613 0 0 0
441 2 0.1019472657779174 25.998904 25.560812 5.958348 0 0 0
442 1 -0.007444351766118983 26.495849 25.202423 3.209647 0 0 0
443 4 -0.6034147805948586 25.364993 27.902482 4.827802 0 0 0
444 2 0.01819133041661142 26.716002 31.026633 3.703817 0 0 0
445 2 0.02371705101274175 26.551062 31.307848 0.780563 0 0 0
446 1 -0.008329452413081331 30.684894 31.082096 4.893712 0 0 0
447 1 -0.01692355508028883 28.492528 31.036004 1.747675 0 0 0
448 1 -0.02538228324450889 25.947874 26.692634 1.187619 0 0 0
449 2 0.01459150971455589 27.561055 29.341204 3.551023 0 0 0
450 2 0.01588038559498294 26.921212 27.195009 1.42629 0 0 0
451 1 -0.0365800592127253 29.259651 28.034734 2.757625 0 0 0
452 1 0.01169272215977006 28.668271 29.242119 3.645458 0 0 0
453 2 0.0309352554596578 28.560362 27.251035 2.930114 0 0 0
454 2 0.01446634391985547 30.208811 30.10871 2.329871 0 0 0
455 1 -0.03783646952909652 31.167793 26.483848 2.308673 0 0 0
456 2 0.01571885938798421 31.346635 26.920301 1.265284 0 0 0
457 2 0.0156012940795946 31.373996 28.252602 3.431093 0 0 0
458 2 -0.03699433586362003 26.576278 29.261642 5.690077 0 0 0
459 2 0.02873872360769564 29.154957 30.793837 0.874991 0 0 0
460 2 0.0250376706942359 27.784721 30.493062 5.887109 0 0 0
461 2 0.01116865972855024 29.422175 28.307408 1.66656 0 0 0
462 2 0.01430731685148464 27.878738 28.529813 0.664573 0 0 0
463 1 -0.03607995123305698 25.336511 25.759578 2.30451 0 0 0
464 2 0.02095953376203436 30.466746 26.993602 4.409902 0 0 0
465 1 -0.0741969715723948 29.236941 29.034609 5.046868 0 0 0
466 2 0.02276625242857198 30.554656 25.580737 2.235964 0 0 0
467 2 0.007772274213057442 28.622485 26.71906 0.63285 0 0 0
468 2 0.06886541719231984 27.145343 26.068853 3.593593 0 0 0
469 2 0.0197199718099147 26.537723 30.197383 2.243008 0 0 0
470 1 -0.0152871177353938 29.322452 30.50342 2.869278 0 0 0
471 1 -0.01005672639893415 27.22083 29.273587 0.298393 0 0 0
472 1 -0.03963334163095494 27.041225 30.50254 1.356589 0 0 0
473 1 0.631280386271894 26.438516 28.194644 5.335913 0 0 0
474 1 0.003535891521463224 30.393226 29.769477 5.454317 0 0 0
475 1 -0.02926153855647958 30.583518 27.458937 3.393257 0 0 0
476 2 0.03225201394564713 26.031503 26.090976 0.27016 0 0 0
477 1 0.2497065083948721 28.757241 28.015986 5.861875 0 0 0
478 4 -0.5991852195230675 27.540385 27.183699 5.580939 0 0 0
479 2 0.03546714674833185 30.835275 25.938082 5.853264 0 0 0
480 2 0.02250726518605579 32.573894 25.405838 3.731988 0 0 0
481 2 0.01282596632521816 31.62968 28.585244 1.531439 0 0 0
482 1 -0.006189638324785915 36.096926 31.085674 0.178197 0 0 0
483 2 0.02919518836711653 31.678203 31.168556 1.195542 0 0 0
484 1 -0.03404147039672652 32.226951 29.03639 0.721498 0 0 0
485 2 0.01965929026968607 33.117856 28.420689 0.592684 0 0 0
486 2 0.03800345848841247 34.491288 25.463247 2.209263 0 0 0
487 2 0.02851240134195986 33.757889 26.615508 1.034324 0 0 0
488 2 0.0325378648549594 33.048238 27.121978 3.50638 0 0 0
489 1 -0.04078430456057028 33.556594 25.841683 1.780484 0 0 0
490 1 -0.03142105131431631 33.023641 30.448288 2.589455 0 0 0
491 2 0.01753238333851422 32.264297 30.014119 3.277029 0 0 0
492 1 -0.03148993055220127 32.609519 26.203716 2.942508 0 0 0
493 2 0.02951978476076829 33.935537 29.87471 2.593125 0 0 0
494 2 0.02521696018666964 35.639798 30.200551 0.745626 0 0 0
495 1 -0.03069838488778777 32.565567 30.531138 1.052121 0 0 0