LAMMPS data file via write_data, version 19 Nov 2024, timestep = 3863676, units = real

11909 atoms
4 atom types

0 56.069815 xlo xhi
0 56.069814 ylo yhi
0 156.018935 zlo zhi

Masses

1 12.011
2 1.008
3 14.007
4 15.999

Atoms # charge/kk

10998 2 0.03146005816604609 27.581795 1.071135 3.544176 0 0 0
10999 2 0.03137619845858859 27.245006 2.819768 3.944912 0 0 0
11000 1 0.1873038948206658 28.000729 2.024581 4.098641 0 0 0
11002 4 -0.4462530253876908 29.293978 2.489236 3.382671 0 0 0
11003 1 -0.01570518438847908 30.878002 2.169676 5.30763 0 0 0
11004 1 -0.02845183351032908 32.126116 2.063986 5.845821 0 0 0
11005 2 0.02808128580368709 31.963421 6.671796 5.565563 0 0 0
11006 2 0.01725591343465785 34.037868 5.233289 5.253911 0 0 0
11007 2 0.008847733645706256 33.022891 2.349185 5.278708 0 0 0
11008 1 -0.05908611364846272 31.550024 5.722388 5.900046 0 0 0
11009 2 0.03140318378110366 31.392313 5.073553 5.014029 0 0 0
11012 1 0.008587179488366027 28.362172 1.763974 5.570074 0 0 0
11013 1 0.05739907466210312 29.681234 1.754991 6.165621 0 0 0
11014 2 0.01144626822295064 31.39839 1.818633 3.171786 0 0 0
11015 2 0.01242901610620117 31.140449 3.566032 3.666953 0 0 0
11016 1 0.1921147702007541 30.790829 2.515708 3.786432 0 0 0
11017 1 -0.02625352157278361 33.907371 4.963905 6.255611 0 0 0
11020 2 0.07071999570136281 36.47594 4.958865 5.666506 0 0 0
11021 2 0.06668717343453585 41.100958 5.17277 6.352062 0 0 0
11022 2 -0.004843968568534847 42.551257 6.131056 5.891755 0 0 0
11024 4 -0.4210424167598132 44.478757 6.645611 6.162759 0 0 0
11025 4 -0.4522614935616951 49.738042 5.828076 3.605311 0 0 0
11026 2 0.1073190037527084 49.963055 6.190042 6.082179 0 0 0
11027 1 0.250969889978517 49.458081 5.957109 2.131981 0 0 0
11028 2 0.06042365689061392 9.643983 7.351303 2.297889 0 0 0
11030 4 -0.2339114834677559 7.415502 8.109425 0.873519 0 0 0
11031 2 0.108384654330673 8.920072 13.503236 3.604238 0 0 0
11032 1 0.02876247636110081 13.870827 13.557493 2.844294 0 0 0
11033 4 -0.5259070983834273 12.780472 13.173767 6.477145 0 0 0
11034 1 0.02837727217428209 10.276445 12.587115 2.263313 0 0 0
11035 1 -0.01238858389639462 12.694104 13.162146 2.200674 0 0 0
11036 2 0.04065160747731246 8.39956 11.485235 0.748715 0 0 0
11037 1 0.05133792001857736 10.285392 8.877079 0.753351 0 0 0
11038 1 -0.02023366134056513 10.297687 12.43206 0.813933 0 0 0
11039 1 -0.008974034590091417 10.032038 9.820762 4.318592 0 0 0
11040 1 0.01299347878316733 11.077342 9.734282 5.392527 0 0 0
11041 1 0.0006769176802397844 9.932874 8.365184 2.15323 0 0 0
11042 1 0.002809969098194784 9.98914 9.095537 3.233624 0 0 0
11043 2 0.06450369512278589 9.150005 10.448417 4.44357 0 0 0
11044 1 0.003537153939211025 12.54643 9.775535 5.176818 0 0 0
11045 1 -0.00778286300961843 12.630201 9.477062 1.360947 0 0 0
11046 1 -0.03204869136173176 11.463239 13.011389 2.926098 0 0 0
11047 1 -0.0003110087885294965 12.711368 13.159031 0.796051 0 0 0
11048 4 -0.5519391506855524 10.208561 12.856711 5.077097 0 0 0
11049 1 0.1825805021385964 11.556498 12.993948 4.340504 0 0 0
11050 1 -0.04678970534288936 8.866157 12.671603 2.856826 0 0 0
11051 2 0.06161900399437831 8.641481 11.699257 3.34125 0 0 0
11052 1 0.2490448148509689 12.686853 13.34285 5.003412 0 0 0
11053 1 -0.1101674924631631 13.907323 13.584869 4.236629 0 0 0
11054 1 -0.007074979278058514 13.322336 9.844673 4.050873 0 0 0
11056 1 0.000487352516069504 11.56617 9.444076 0.354524 0 0 0
11057 2 0.02657586579439066 8.115435 12.94938 2.054805 0 0 0
11058 1 0.009850352800690491 13.646448 9.998168 6.269566 0 0 0
11059 1 0.004272629091477076 9.2526 11.843442 0.124076 0 0 0
11060 1 0.007234396368504009 11.493977 12.807565 0.113774 0 0 0
11061 1 -0.0001838519370735353 13.882544 13.497766 0 0 0 0
11064 1 0.007359779295662977 14.030516 9.911321 1.062425 0 0 0
11066 1 -0.0007798088012891428 14.575906 9.987141 3.539526 0 0 0
11067 1 0.004714596538887142 18.888681 11.343032 1.370385 0 0 0
11068 1 0.01027236353009838 19.432132 11.615595 3.688794 0 0 0
11069 1 -0.001407614218021264 15.025118 10.125236 2.114328 0 0 0
11070 1 0.003869740927395145 17.711251 11.101021 5.361566 0 0 0
11071 1 0.001867793088970111 15.543561 10.193332 4.710277 0 0 0
11072 1 -0.001355562682706965 16.811822 10.599986 4.331477 0 0 0
11073 1 0.006591889455773658 20.161853 12.006994 1.083831 0 0 0
11074 2 0.02610854982855537 19.671871 11.877818 5.815473 0 0 0
11075 1 0.0030475443204344 16.344143 10.514544 1.855275 0 0 0
11076 1 -0.00147026575493351 15.037721 10.151627 6.012166 0 0 0
11077 1 -0.0006215334226015033 17.164094 10.811055 2.999366 0 0 0
11078 1 0.008531715283270859 16.738713 10.63287 0.484871 0 0 0
11079 1 0.007169447030994791 18.464716 11.257823 2.702841 0 0 0
11080 1 -0.0208754970909532 18.981156 11.56993 5.000315 0 0 0
11081 2 0.006958026943731902 18.284097 13.601856 0.393685 0 0 0
11082 1 -0.0695804928142538 15.055454 13.893825 2.121616 0 0 0
11083 1 -0.004216033236268672 20.83197 11.940946 3.387381 0 0 0
11084 1 0.00600033584986619 18.029831 11.126509 0.273467 0 0 0
11085 2 0.03597811168739129 20.845543 13.588296 5.572662 0 0 0
11086 1 0.3086724715573609 15.103166 13.985844 4.925189 0 0 0
11087 1 0.01083722678710784 21.160656 12.176836 2.098024 0 0 0
11088 1 0.3364314280484232 22.972268 13.18819 6.477078 0 0 0
11089 4 -0.4195321927577432 27.632806 12.951852 4.692715 0 0 0
11090 2 -0.02791666709099765 22.316678 12.860187 5.630132 0 0 0
11091 2 0.03545621535934235 21.605969 12.133157 4.162664 0 0 0
11092 2 0.05919737894515084 22.15692 12.512693 1.883825 0 0 0
11093 2 0.03961191461377288 26.453871 13.717401 3.122631 0 0 0
11095 1 0.004760227307721296 34.932001 12.470016 1.707649 0 0 0
11096 1 0.1820660892385478 28.710941 13.288301 5.740607 0 0 0
11097 2 0.0273707865887175 33.452972 8.571634 6.078258 0 0 0
11098 1 -0.02087201048826896 33.55652 9.322624 4.11743 0 0 0
11099 2 0.03831582551352709 32.891372 9.686315 1.553678 0 0 0
11100 1 -0.01804211175293677 33.846487 9.335321 5.439959 0 0 0
11101 2 0.07631167924489066 28.774721 12.404084 6.395479 0 0 0
11102 4 -0.5341600514968723 31.464926 13.305845 2.434897 0 0 0
11103 2 0.02043991145464834 32.926473 8.560184 3.680751 0 0 0
11104 1 -0.01532088575931516 33.580885 10.45502 1.91188 0 0 0
11105 1 0.007840315381687486 34.013487 10.390446 3.258543 0 0 0
11108 2 0.09727931680769782 29.718322 13.390731 5.313422 0 0 0
11109 2 -0.02619174240070078 34.956766 7.078276 5.364458 0 0 0
11110 1 0.03699198178407721 33.968627 11.49911 1.127072 0 0 0
11111 1 0.6087861307495063 32.211788 13.262151 3.385184 0 0 0
11112 1 0.0166574728154067 34.66143 10.369942 5.996007 0 0 0
11113 2 -0.01140299429163497 32.358437 12.421764 4.173741 0 0 0
11114 1 0.0108596881334019 34.915212 11.327903 3.804658 0 0 0
11115 2 0.09977182032273574 37.648098 9.649257 1.077212 0 0 0
11116 1 0.03127218877156876 36.214174 13.410038 3.604878 0 0 0
11118 1 0.2825133577684275 38.902905 9.225266 3.587399 0 0 0
11119 1 0.02235639887502227 35.398072 12.436376 3.061883 0 0 0
11120 1 0.02863927359600481 40.99201 10.514695 3.577073 0 0 0
11121 2 -0.01899009829171175 35.714176 7.93785 3.420117 0 0 0
11122 1 0.04268372755590902 41.341513 12.404878 2.111267 0 0 0
11123 1 -0.001368906983288383 40.495178 12.835673 6.393762 0 0 0
11124 1 0.001207521106829257 35.069167 11.453093 5.190873 0 0 0
11127 1 -0.04701570986591652 39.228136 8.747487 4.87521 0 0 0
11128 1 -0.01146451153324707 38.151213 10.58706 1.000546 0 0 0
11129 1 0.02364708796892539 36.446377 13.480875 4.977701 0 0 0
11130 1 0.04093779117785222 40.559292 9.002174 5.402659 0 0 0
11131 1 -0.130343046531782 36.978165 7.88979 5.114683 0 0 0
11132 2 0.08646978204725712 39.420987 13.184724 6.314402 0 0 0
11133 2 0.08819934025936747 40.613732 12.145011 5.555142 0 0 0
11134 4 -0.5375565970460761 37.630176 8.807715 2.918772 0 0 0
11135 1 0.2664675723757928 35.946149 7.360704 5.823574 0 0 0
11136 1 0.002655656540851765 41.818456 11.5047 3.045304 0 0 0
11137 1 0.05034867157732304 39.306592 10.901579 1.771748 0 0 0
11138 1 0.02054053120540792 39.489868 13.086243 0.638632 0 0 0
11139 1 0.03460693541296259 35.889736 12.45298 5.788297 0 0 0
11140 4 -0.4998902466481278 39.865346 13.774211 3.818165 0 0 0
11141 1 0.01553302882030334 35.207645 13.676744 0.8694 0 0 0
11142 1 0.008014782884119999 37.633394 11.50535 0.153726 0 0 0
11143 1 0.2772644662431226 36.682507 8.105692 3.805284 0 0 0
11145 1 0.01219870813963842 40.146897 12.037571 1.45656 0 0 0
11146 1 -0.03536035492338472 39.727766 10.14078 2.937614 0 0 0
11147 1 0.1014363310316767 38.296053 8.142342 5.685001 0 0 0
11148 1 -0.00909642987604186 41.401033 10.002066 4.804374 0 0 0
11149 1 0.003884234794802815 38.292099 12.780621 0.032812 0 0 0
11150 1 0.003774308079687149 43.021034 11.963983 3.68466 0 0 0
11151 1 -0.03823862441052567 43.373946 11.512566 4.94851 0 0 0
11153 1 0.001284339841844201 43.887123 12.844641 2.984977 0 0 0
11154 1 0.2225854618612095 44.640761 11.967527 5.461095 0 0 0
11155 1 -0.04559159588666805 45.74211 12.102947 4.443146 0 0 0
11156 2 0.05405261094372523 45.960298 11.163822 3.801241 0 0 0
11157 2 0.001540705160987213 44.325363 12.972418 5.949205 0 0 0
11159 2 0.04394941811188244 46.658923 12.555861 4.818426 0 0 0
11160 2 0.03159640559936246 45.937582 13.258772 2.650397 0 0 0
11161 1 -0.05007564676724629 45.206228 13.205777 3.531624 0 0 0
11162 1 0.2488180331473498 48.584541 13.807681 2.652041 0 0 0
11163 1 -0.02625795844744247 43.410834 13.703934 2.064034 0 0 0
11164 1 0.002870171258797856 42.059461 13.564923 1.687022 0 0 0
11165 1 0.04705438361552908 42.610916 10.470647 5.471114 0 0 0
11166 1 -0.06284372777733624 48.449545 13.912672 3.980752 0 0 0
11167 4 -0.4615608526016777 48.976804 12.562844 1.841769 0 0 0
11168 1 0.02380082168588384 48.458308 12.042763 6.243542 0 0 0
11169 1 -0.04933431457359459 49.019663 10.74339 3.612301 0 0 0
11171 2 0.06246590013123431 48.993159 9.858644 0.491854 0 0 0
11172 1 0.04140968924412707 49.005956 9.730513 4.464562 0 0 0
11173 1 0.003862799532564206 49.055961 9.58772 5.949804 0 0 0
11174 1 0.2685579490035444 49.1575 11.115613 2.402761 0 0 0
11175 1 -0.007110155002535208 51.859319 11.924179 6.443451 0 0 0
11176 1 -0.05699784436017678 49.207163 9.847542 1.58241 0 0 0
11177 2 0.04017021153274009 53.344612 10.934116 5.302811 0 0 0
11178 2 0.08128199075352827 51.119198 13.692813 3.068498 0 0 0
11179 1 0.04724836968131635 49.211365 8.635583 2.231272 0 0 0
11180 1 -0.05115490877170308 49.236251 7.164654 1.488962 0 0 0
11181 1 -0.06151202797339109 49.302449 8.443147 3.677551 0 0 0
11182 1 0.1863237831163753 52.133121 13.660615 3.47289 0 0 0
11183 1 0.2352218981258482 49.562549 7.224367 4.313431 0 0 0
11185 1 -0.05202524770195123 49.726128 7.176794 5.657421 0 0 0
11186 2 0.08534566211097398 52.820838 13.595113 2.616915 0 0 0
11187 2 0.03892705815794952 54.854217 13.194105 5.252871 0 0 0
11188 1 -0.04096233430806751 54.006526 13.226955 5.922895 0 0 0
11189 4 -0.4540450864385702 52.196476 12.219202 3.982504 0 0 0
11190 1 0.1760294468927901 52.877116 11.97043 5.434878 0 0 0
11191 4 -0.5085065828157764 13.136781 20.381518 6.346944 0 0 0
11195 1 0.02210349986207867 15.038281 14.033024 0.682876 0 0 0
11196 1 -0.1392057965923145 16.226629 14.3017 4.197729 0 0 0
11197 4 -0.5509859053050892 15.103179 14.108194 6.404849 0 0 0
11198 2 0.09597158212969652 14.089494 20.345672 3.684689 0 0 0
11199 1 0.2852642262670839 16.253508 14.245542 2.807756 0 0 0
11200 2 0.04434164093719723 15.600269 20.512136 2.74852 0 0 0
11201 1 0.1904100123296572 17.622036 14.464738 0.571869 0 0 0
11202 4 -0.5099495482269399 17.526065 14.578841 2.119745 0 0 0
11203 1 -0.03850737719882948 18.350532 15.731337 0.024507 0 0 0
11204 1 0.02648117438271044 16.493034 20.81257 5.315338 0 0 0
11205 2 0.07824517066440632 14.279628 16.337742 6.059751 0 0 0
11206 1 -0.05908056076833595 16.893504 19.528838 4.877242 0 0 0
11207 2 0.08977679712356156 16.29773 19.089385 4.094449 0 0 0
11208 2 0.05300172385272597 15.670951 16.797993 4.836689 0 0 0
11209 2 0.07919345586855986 19.7621 14.660572 1.221796 0 0 0
11210 2 0.09067632960567233 17.020106 15.462605 6.267841 0 0 0
11211 1 0.1837954243265064 15.106542 17.032895 5.757422 0 0 0
11212 1 -0.04366456184010028 19.617769 15.320037 4.880416 0 0 0
11213 4 -0.5397491715494771 18.268319 17.445301 4.805486 0 0 0
11214 2 0.0984442494078064 19.617394 15.300652 3.736795 0 0 0
11215 2 0.05740945451245243 18.757924 14.693498 5.189341 0 0 0
11216 1 -0.06842148462186702 18.700965 19.341634 6.402168 0 0 0
11217 1 -0.04713600815521387 20.124615 17.223095 6.44536 0 0 0
11218 2 0.08542098753247074 17.091033 14.632115 4.74234 0 0 0
11219 2 0.08691179520291607 19.704868 16.677265 2.529181 0 0 0
11220 1 0.01664759976751968 19.786369 15.611365 0.640342 0 0 0
11221 1 0.2805049046008617 19.423638 16.754073 5.358189 0 0 0
11222 1 0.2634617137377541 17.895337 18.787096 5.387103 0 0 0
11223 4 -0.5014447960866391 14.468266 18.427918 5.547343 0 0 0
11225 1 -0.0366376993861879 20.146569 16.879136 1.548062 0 0 0
11226 2 0.04955894383584895 19.765459 17.832509 1.023195 0 0 0
11227 1 -0.07813252430467094 21.008088 14.67736 5.362976 0 0 0
11228 2 0.04394518453435654 17.924523 16.753892 0.158522 0 0 0
11229 1 0.01777033293156317 25.528543 15.862267 4.38904 0 0 0
11230 4 -0.5082336324063231 21.700317 14.763726 2.981149 0 0 0
11231 1 0.3359928582525781 23.412139 20.662598 2.736244 0 0 0
11233 2 0.02233926761478822 27.860059 20.293664 4.638541 0 0 0
11234 1 -0.01230850621147447 26.566508 15.147995 4.887261 0 0 0
11235 1 0.01205884864207345 21.715701 20.539406 5.78291 0 0 0
11236 1 0.6148421188774289 24.076319 17.398558 2.336246 0 0 0
11237 1 0.2795609492651752 23.794725 17.595841 4.822231 0 0 0
11238 2 0.05897103604525223 27.437709 19.034005 2.228702 0 0 0
11239 4 -0.4654091220619057 22.31541 20.859072 2.237972 0 0 0
11240 2 -0.00709675613394228 23.078525 14.886428 4.454848 0 0 0
11241 2 -0.02434795457632975 23.827417 16.686432 1.488716 0 0 0
11242 1 -0.05246879892919085 23.244397 18.600141 5.628586 0 0 0
11245 2 0.06091934042445644 25.723753 20.816253 0.570555 0 0 0
11246 2 0.09263323224526926 21.240876 16.87756 1.526157 0 0 0
11247 1 0.1846858312939853 27.180143 14.136819 3.856597 0 0 0
11248 2 0.05476007984840281 26.029419 20.394199 3.147695 0 0 0
11249 2 0.02881264643000768 23.527533 19.725122 3.344348 0 0 0
11250 2 0.02546922493830632 25.786218 19.988355 5.728079 0 0 0
11251 2 0.08973858577313581 21.654042 19.134243 4.180225 0 0 0
11253 1 0.00264828692079495 22.134957 19.396556 5.116963 0 0 0
11254 4 -0.5770158339231473 23.116189 17.36462 3.52117 0 0 0
11255 1 0.04235798635194518 27.079737 15.224981 6.202281 0 0 0
11256 1 -0.05258108881505874 24.90538 16.848321 5.257436 0 0 0
11257 2 0.04375733212953278 25.193209 15.791785 3.301932 0 0 0
11258 1 0.3585226271688229 22.016854 14.744925 4.160516 0 0 0
11259 4 -0.5932714652656172 25.135272 18.002353 2.346249 0 0 0
11260 2 0.04433292319169736 28.087248 14.533982 3.306721 0 0 0
11262 1 0.00200480706619078 34.486223 19.041226 3.792153 0 0 0
11263 1 -0.02914346103377849 31.752915 20.3276 5.531471 0 0 0
11264 1 -0.1093112503781687 29.313795 18.501732 3.280888 0 0 0
11265 4 -0.5079990955229636 32.202001 14.998338 6.000467 0 0 0
11266 1 0.1615341351746754 30.727352 18.030324 5.721866 0 0 0
11267 4 -0.5335475421202022 33.231861 14.368311 3.779405 0 0 0
11268 2 0.1134115703718741 32.008666 15.100035 1.30974 0 0 0
11269 1 0.07141461889760339 30.193501 19.475079 3.799362 0 0 0
11270 1 -0.07076526907727353 32.395469 15.919087 1.987759 0 0 0
11271 1 -0.003287253962551266 31.527813 17.323668 0.125993 0 0 0
11272 1 -0.02243530611039181 33.550506 16.831497 3.930111 0 0 0
11273 1 0.01362712008402521 33.923149 20.541277 1.994131 0 0 0
11276 1 -0.001466951102922622 32.979393 18.338778 2.032827 0 0 0
11277 1 0.2663703343050228 29.155402 17.259809 3.834127 0 0 0
11278 4 -0.519945400073202 29.021564 19.834837 1.123891 0 0 0
11279 1 0.2915994282067202 33.076565 15.733922 3.155567 0 0 0
11280 1 -0.01322682133389147 33.818107 16.749498 5.348008 0 0 0
11281 1 -0.02454680250704677 33.139454 19.552411 1.378506 0 0 0
11282 4 -0.4685352606524156 29.738283 16.912332 5.097097 0 0 0
11283 2 0.03118590709092463 32.677992 19.738841 0.472317 0 0 0
11284 1 -0.007198057946313874 33.665976 18.027481 3.234075 0 0 0
11285 1 0.01740622674635979 34.773865 17.67027 5.861892 0 0 0
11286 1 0.2657727667017327 29.785648 20.902365 1.811448 0 0 0
11288 1 0.2133481566855416 28.519852 18.706313 1.965203 0 0 0
11289 2 0.003813733862028244 28.562955 16.454838 3.42835 0 0 0
11290 2 0.02426400258304604 28.473767 17.796723 1.370415 0 0 0
11291 1 0.008523049539571692 32.227682 17.217914 1.486121 0 0 0
11292 1 -0.02195503198121038 34.591669 20.274777 3.187943 0 0 0
11293 2 0.0619874034567887 30.585804 17.95064 0.28549 0 0 0
11294 1 -0.08767245189323436 30.307315 20.711581 3.095922 0 0 0
11295 1 -0.02810404357109907 30.891573 19.275705 4.984582 0 0 0
11296 1 0.2833211263130666 33.318034 15.870842 6.337111 0 0 0
11298 1 -0.02647041635846858 40.866571 20.954554 4.987147 0 0 0
11299 2 0.01413758895928699 41.983373 18.593302 3.596333 0 0 0
11302 1 -0.001400978684198677 35.145499 18.765663 5.065249 0 0 0
11303 4 -0.5607269952605498 37.762416 20.996136 0.745957 0 0 0
11304 1 0.02521974812991864 41.257161 14.108977 6.274374 0 0 0
11305 2 0.01521850551395527 41.12789 20.485872 5.991632 0 0 0
11306 2 0.08348519362011127 36.377472 20.617887 4.929736 0 0 0
11307 1 0.02097711384799088 37.183568 14.498913 5.548328 0 0 0
11308 1 0.0212931536551195 36.709324 14.535506 2.733214 0 0 0
11309 1 0.001051351489889267 36.370067 14.539023 1.277727 0 0 0
11310 1 -0.01405317910781356 36.065146 19.725446 5.506494 0 0 0
11311 1 0.290301268170114 37.615018 19.668025 1.376414 0 0 0
11312 1 0.01380623057401379 37.282854 15.672962 3.380046 0 0 0
11313 1 0.006417752154370293 37.529402 15.658545 4.753545 0 0 0
11314 1 0.002522242425342876 36.907197 17.279799 1.254022 0 0 0
11315 1 -0.008388594232404853 37.544573 16.936368 2.55154 0 0 0
11316 1 0.008083448102595019 38.30946 17.946384 3.167115 0 0 0
11317 1 -0.0009238868138195565 38.328211 16.703489 5.290093 0 0 0
11318 1 -0.07418397169299237 41.759139 14.787297 5.056093 0 0 0
11319 2 0.01800958188389738 40.929243 17.195477 3.017055 0 0 0
11320 2 -0.02285342491341519 40.500573 15.610353 3.215154 0 0 0
11321 1 -0.05653948883951868 38.391195 19.295309 2.470789 0 0 0
11322 1 0.02962522680494936 39.318958 20.215356 3.121807 0 0 0
11323 2 0.02827940960305581 40.710589 19.536998 1.483573 0 0 0
11324 1 -0.001461035713990265 39.765514 20.027847 4.387148 0 0 0
11325 1 -0.00752915721025911 38.815869 17.773752 4.487752 0 0 0
11326 1 0.3291656322613254 40.620771 14.736756 3.931171 0 0 0
11327 1 0.004968116753868208 39.28626 18.914303 5.210374 0 0 0
11328 1 -0.01431867813148893 36.768431 18.67949 0.744255 0 0 0
11329 2 0.00795782561556737 41.429147 16.957621 5.124762 0 0 0
11330 1 -0.01561585853454275 41.461902 14.557405 0.934509 0 0 0
11331 1 -0.002112648514455675 41.640874 19.366868 0.912516 0 0 0
11332 1 0.01733256788646106 40.170451 14.403189 0.426905 0 0 0
11333 1 -0.03278629514962846 41.943609 17.735306 2.901972 0 0 0
11336 1 -0.01293457819852601 45.048967 18.176168 4.038707 0 0 0
11337 1 -0.01267045697657646 43.160236 16.753104 3.155812 0 0 0
11338 2 0.03542774777244781 48.379909 19.230406 1.00168 0 0 0
11339 1 -0.01221905509442733 43.605484 18.693114 5.806513 0 0 0
11340 2 0.01666526510884919 45.933225 20.096104 2.203138 0 0 0
11341 1 -0.01719138627316414 43.466834 16.418213 4.686128 0 0 0
11342 2 0.0284888637656234 42.640699 14.238837 4.680896 0 0 0
11343 1 -0.007765283008142452 42.41313 18.0966 1.413314 0 0 0
11344 1 -0.01356440760324353 44.731148 19.69742 5.800124 0 0 0
11345 2 0.05557384613503875 46.723104 20.703503 5.945664 0 0 0
11346 1 0.01027667609700636 48.173289 14.763721 5.039775 0 0 0
11347 1 -0.06433693239990004 48.435111 17.187285 5.466461 0 0 0
11348 2 0.01452730333192744 45.220707 14.22274 3.894271 0 0 0
11349 2 0.01944839054345549 47.432025 17.592127 0.706085 0 0 0
11350 2 0.01579479675570061 44.355496 17.880665 0.469448 0 0 0
11351 1 -0.009655179742955019 44.975479 20.582732 2.129421 0 0 0
11352 1 -0.01703055477420891 43.941851 18.365123 1.378357 0 0 0
11353 1 -0.01204121446932602 44.359319 17.530043 5.209555 0 0 0
11354 2 0.02116334496850188 42.246129 17.224024 0.70309 0 0 0
11355 2 0.01709507095855651 44.037734 14.513261 1.697941 0 0 0
11356 2 0.0127728936724797 46.132922 17.91666 3.958594 0 0 0
11357 1 -0.03181430735104264 44.078959 20.441726 3.400588 0 0 0
11358 2 0.01075151041229438 42.740699 19.088084 5.212409 0 0 0
11360 2 0.01016479735443184 45.150067 16.943173 2.096336 0 0 0
11361 2 0.01712047890201468 45.552396 19.340212 6.45155 0 0 0
11363 2 0.01367168452348467 45.083642 17.177241 5.95452 0 0 0
11364 4 -0.5391864699004534 48.629227 19.669288 5.798248 0 0 0
11365 2 0.02514577536036555 46.095268 20.085071 4.189201 0 0 0
11366 1 -0.01306667971560229 45.056019 19.705265 4.338702 0 0 0
11367 1 -0.001644626920985469 48.379522 16.15746 4.532359 0 0 0
11369 1 0.02683632841042788 48.498427 17.662871 2.575196 0 0 0
11370 1 -0.05612391350818756 48.381206 18.103722 1.087244 0 0 0
11371 2 0.08086813771184438 48.943378 15.356872 1.112173 0 0 0
11372 1 -0.04595030523491279 48.669942 15.189573 2.189893 0 0 0
11373 1 -0.008164940768916985 42.178699 16.174901 5.468275 0 0 0
11374 1 -0.004946711913344716 48.432697 16.340386 3.030438 0 0 0
11375 1 0.2765021945452863 48.544517 18.522094 4.875142 0 0 0
11376 1 -0.0162176702213615 44.073231 19.97651 1.006724 0 0 0
11377 1 -0.0110591145511101 42.634246 20.593749 1.12143 0 0 0
11378 2 0.01446341990744933 44.020879 15.485181 4.773531 0 0 0
11379 2 0.02119799174134324 44.464431 20.147767 0.007366 0 0 0
11380 1 -0.01380187046899006 44.412674 17.575684 2.642858 0 0 0
11381 2 0.0178995148954162 43.144928 19.847988 3.181321 0 0 0
11382 2 0.01838379448992124 42.073223 15.463262 0.729687 0 0 0
11383 2 0.07164089897254133 48.565625 19.762727 3.148009 0 0 0
11384 1 -0.06501424980655718 48.5123 18.697184 3.507867 0 0 0
11385 2 0.01202591558502796 43.107015 15.810669 2.5455 0 0 0
11386 1 -0.05511253330098102 52.503762 17.200816 5.064044 0 0 0
11387 1 0.3088025912999022 51.896142 16.579643 2.686906 0 0 0
11388 4 -0.4599475477098322 51.726233 19.096607 3.668195 0 0 0
11389 1 0.01583705092020355 53.16949 14.517624 5.71255 0 0 0
11390 4 -0.4545182695319316 51.78075 15.673581 1.819329 0 0 0
11391 1 -0.01558706123979084 52.321933 16.142567 4.14286 0 0 0
11392 2 -0.005042617889888482 51.764577 19.243228 5.716603 0 0 0
11393 1 -0.01134946601152749 52.558206 14.817037 4.487288 0 0 0
11394 1 -0.0009774331703971181 53.218268 16.959213 6.290236 0 0 0
11395 2 0.05637595414486506 49.251546 17.646872 0.541628 0 0 0
11396 1 0.3068310266664533 52.013831 18.659708 4.81974 0 0 0
11399 2 0.03365154205218392 53.658245 19.65926 5.660387 0 0 0
11400 2 0.07597271628067541 51.893625 17.619543 2.342001 0 0 0
11402 1 0.3206241973860262 12.508249 25.53913 4.871744 0 0 0
11403 2 -0.009422998462420827 12.27664 26.39062 5.562048 0 0 0
11404 1 -0.03552810309813645 13.768182 24.693828 5.308133 0 0 0
11405 4 -0.4248776163490305 11.783145 25.312308 3.900257 0 0 0
11406 2 0.0642370584029409 13.61014 23.226966 3.720725 0 0 0
11407 1 0.05884952378518024 15.447242 21.561032 4.703575 0 0 0
11408 4 -0.5487840630106413 19.226222 23.531408 5.402462 0 0 0
11409 2 0.06358692107137141 20.084483 21.081053 4.327508 0 0 0
11410 4 -0.512058396127569 17.411432 23.432219 3.73935 0 0 0
11411 2 -0.02688692933773081 19.064248 22.144441 3.607063 0 0 0
11412 1 0.03114430507429825 14.10323 23.531528 4.656802 0 0 0
11413 1 0.5959081446592885 18.509748 23.059159 4.124965 0 0 0
11414 1 -0.07749489144343429 20.600463 21.385437 5.24007 0 0 0
11415 1 0.2463296610964507 20.24369 22.524778 5.911562 0 0 0
11416 1 0.002753687242625359 17.307459 21.385331 6.401208 0 0 0
11417 1 0.01896510556978597 15.791305 23.201891 6.479434 0 0 0
11418 1 -0.01728101147426443 14.340014 25.19725 6.494069 0 0 0
11419 2 0.05490140106688052 14.372465 21.903706 2.746807 0 0 0
11420 1 0.04158728576270163 15.174817 22.80102 5.265216 0 0 0
11421 1 -0.05803384873382676 14.825668 21.074611 3.353624 0 0 0
11424 2 0.01371689103575592 25.380454 24.952586 6.378808 0 0 0
11425 2 0.01406281603245583 26.508866 23.199745 6.399035 0 0 0
11427 1 -0.07259843780421094 24.587476 27.214055 6.493793 0 0 0
11428 2 0.02929048860392799 27.497592 21.799254 2.286479 0 0 0
11429 1 -0.03098835977459028 26.118021 21.049217 5.682693 0 0 0
11430 2 0.03323586695178229 27.175495 22.443935 0.757191 0 0 0
11431 2 0.02452233318776854 23.156324 27.671092 0.694789 0 0 0
11432 2 0.02023414214549786 23.52945 27.391768 2.665928 0 0 0
11433 1 -0.01860915623044819 24.889118 21.497366 0.839035 0 0 0
11434 1 -0.01110841893545375 24.251804 27.854653 0.499401 0 0 0
11435 2 0.01639424618051254 24.593587 24.734272 4.882761 0 0 0
11436 2 0.01348100906784863 24.71644 25.643213 3.363677 0 0 0
11437 2 0.09859561073778074 26.725041 26.975833 4.505168 0 0 0
11438 1 -0.03525890442039919 26.605513 26.897707 1.356795 0 0 0
11439 1 -0.001139540984864535 26.409466 25.888028 4.793762 0 0 0
11440 1 -0.0451489478181141 24.897374 25.710129 4.466752 0 0 0
11441 1 -0.01711685161398888 25.141622 26.62642 0.917927 0 0 0
11442 2 0.01070928032126707 24.7624 26.023231 1.738639 0 0 0
11443 2 0.031848121913358 27.118187 27.699378 0.769503 0 0 0
11444 1 -0.05757072194380457 24.530014 21.64002 2.373683 0 0 0
11445 1 -0.00789291275371418 25.128627 22.922903 0.404884 0 0 0
11446 1 -0.02022824600907122 26.522564 23.360639 0.917644 0 0 0
11447 1 -0.01788792279251317 25.704945 21.462141 3.266192 0 0 0
11448 2 0.01052415210679488 25.440171 24.072907 2.792998 0 0 0
11449 1 -0.009518295804238309 24.02768 26.918231 5.104883 0 0 0
11450 2 0.01606936161818521 22.939843 26.692413 5.121893 0 0 0
11451 2 0.01644837753906214 24.18417 21.482714 4.742492 0 0 0
11452 2 0.03890390221561844 24.199789 22.667067 2.554468 0 0 0
11453 2 0.02697134606969047 24.392614 23.55632 0.981557 0 0 0
11454 2 0.01617027486919339 25.328783 22.975913 4.883465 0 0 0
11455 1 -0.03291707999495626 25.226938 21.861009 4.678768 0 0 0
11456 2 0.03899490821194863 26.523207 27.279486 2.330243 0 0 0
11457 1 -0.01802831690504727 26.860931 22.395343 2.99844 0 0 0
11458 1 -0.01738828813634842 26.4668 23.733803 2.4202 0 0 0
11459 1 -0.001628595390384398 27.139503 24.591411 0.284729 0 0 0
11460 1 -0.04759896652117551 26.268797 25.668136 6.281241 0 0 0
11461 1 -0.01516130775669458 27.518446 25.594384 1.395595 0 0 0
11462 1 -0.01210650399157205 27.637539 21.262804 5.169537 0 0 0
11463 1 -0.008448161532481848 27.562909 24.720445 2.664845 0 0 0
11464 1 -0.02143111190072261 27.521393 23.662637 6.306032 0 0 0
11465 1 -0.01561727036345754 27.905126 22.479036 4.196471 0 0 0
11466 1 -0.02693392342187035 27.607184 25.109447 4.12485 0 0 0
11468 2 0.07126954843997566 24.018933 21.267878 0.276412 0 0 0
11470 2 0.070827217404724 34.617041 25.803178 5.070508 0 0 0
11471 2 0.03032588608469354 29.732176 21.355022 5.76753 0 0 0
11472 2 0.03287802160671254 34.077125 24.090179 1.579221 0 0 0
11473 2 0.05643623988909752 28.56373 25.937182 0.985631 0 0 0
11474 2 0.02498218156043286 33.196462 22.03028 0.644518 0 0 0
11475 1 0.03376985798740124 31.077464 21.787924 3.611629 0 0 0
11476 1 -0.06920147077094359 31.762379 21.580239 4.82668 0 0 0
11477 2 -0.02187199634535722 33.647513 22.547489 4.783902 0 0 0
11478 1 -0.02884864345328 34.11704 21.869096 1.172165 0 0 0
11479 2 0.04220891359770339 29.076295 24.09984 5.037051 0 0 0
11481 1 -0.01178601350855148 28.761847 21.478821 6.270931 0 0 0
11482 4 -0.4740493632828892 32.117965 24.087451 5.003584 0 0 0
11483 4 -0.4872820524891959 31.055294 25.572026 1.565559 0 0 0
11484 1 -0.08410763016084651 29.994532 22.078463 1.1306 0 0 0
11485 1 0.1929476748701579 30.510718 24.375974 0.740413 0 0 0
11486 2 0.05731699867824205 31.718241 26.367945 3.424057 0 0 0
11487 2 0.02194160750690816 33.44166 23.019742 2.944213 0 0 0
11489 1 0.1705373312458084 31.652962 24.209283 3.567127 0 0 0
11490 1 0.4254677132566541 32.681173 22.677689 5.30841 0 0 0
11491 2 0.02636711508736548 28.627781 24.272435 2.538888 0 0 0
11492 2 0.01213704591226499 29.486804 24.750838 0.464616 0 0 0
11493 2 0.05576028705103487 29.566327 22.237163 0.148998 0 0 0
11494 2 0.06155443172739599 34.936266 21.802986 0.480291 0 0 0
11495 1 -0.01866999369540768 28.038257 23.804614 4.896618 0 0 0
11496 1 -0.01326046138292468 30.60028 23.127004 1.627058 0 0 0
11497 1 -0.05622574255023449 34.217389 23.128116 2.120782 0 0 0
11498 2 0.0155183015494154 28.929766 22.272101 3.731052 0 0 0
11500 1 0.1852817397263711 31.515794 25.410332 2.992352 0 0 0
11501 2 0.05911870908403248 28.449184 25.762038 4.288291 0 0 0
11502 1 -0.0411562279238033 31.14064 23.006587 2.915082 0 0 0
11503 1 -0.008574882167530362 37.524746 27.036405 5.981912 0 0 0
11504 1 0.6393363831599146 39.144967 25.249988 2.072603 0 0 0
11505 2 -0.04818984546915413 38.133018 23.129863 1.220907 0 0 0
11506 1 -0.004323906601335457 37.626515 25.522879 6.354185 0 0 0
11507 1 -0.02723196079690601 41.18946 26.798617 5.019751 0 0 0
11508 1 -0.01335566150683675 36.2367 25.00431 6.250181 0 0 0
11509 2 0.07600265696935588 40.901508 27.128694 4.010045 0 0 0
11510 1 0.003748536196100311 40.721944 22.87796 0.766861 0 0 0
11511 2 -0.06875207177191087 38.977233 24.337313 1.489723 0 0 0
11512 1 0.002013979480771049 40.01821 26.48728 5.918347 0 0 0
11513 2 0.06389858145261446 41.093265 24.57915 4.759787 0 0 0
11514 1 -0.04522759658097737 38.930466 27.607874 5.476063 0 0 0
11515 4 -0.6105501064470761 40.102668 25.093705 2.808163 0 0 0
11516 2 0.03158343553633304 40.519922 22.357425 1.743622 0 0 0
11517 1 0.2262040238580055 37.239263 26.140603 0.869591 0 0 0
11519 2 0.02046702501234195 35.867561 24.908278 4.067554 0 0 0
11520 2 0.03302135304336459 39.657159 21.09076 2.554926 0 0 0
11521 2 0.01417880888432429 35.922081 23.31263 4.648936 0 0 0
11522 2 0.07691135415676514 35.208615 23.204393 2.656043 0 0 0
11523 2 0.01706200851402576 41.144442 23.007353 5.732491 0 0 0
11524 4 -0.4956902514132193 36.545053 22.593074 6.441265 0 0 0